Start Job  on nano24

                                 *****************
                                 * O   R   C   A *
                                 *****************

                                            #,                                       
                                            ###                                      
                                            ####                                     
                                            #####                                    
                                            ######                                   
                                           ########,                                 
                                     ,,################,,,,,                         
                               ,,#################################,,                 
                          ,,##########################################,,             
                       ,#########################################, ''#####,          
                    ,#############################################,,   '####,        
                  ,##################################################,,,,####,       
                ,###########''''           ''''###############################       
              ,#####''   ,,,,##########,,,,          '''####'''          '####       
            ,##' ,,,,###########################,,,                        '##       
           ' ,,###''''                  '''############,,,                           
         ,,##''                                '''############,,,,        ,,,,,,###''
      ,#''                                            '''#######################'''  
     '                                                          ''''####''''         
             ,#######,   #######,   ,#######,      ##                                
            ,#'     '#,  ##    ##  ,#'     '#,    #''#        ######   ,####,        
            ##       ##  ##   ,#'  ##            #'  '#       #        #'  '#        
            ##       ##  #######   ##           ,######,      #####,   #    #        
            '#,     ,#'  ##    ##  '#,     ,#' ,#      #,         ##   #,  ,#        
             '#######'   ##     ##  '#######'  #'      '#     #####' # '####'        



                  #######################################################
                  #                        -***-                        #
                  #          Department of theory and spectroscopy      #
                  #    Directorship and core code : Frank Neese         #
                  #        Max Planck Institute fuer Kohlenforschung    #
                  #                Kaiser Wilhelm Platz 1               #
                  #                 D-45470 Muelheim/Ruhr               #
                  #                      Germany                        #
                  #                                                     #
                  #                  All rights reserved                #
                  #                        -***-                        #
                  #######################################################


                         Program Version 5.0.4 -  RELEASE  -


 With contributions from (in alphabetic order):
   Daniel Aravena         : Magnetic Suceptibility
   Michael Atanasov       : Ab Initio Ligand Field Theory (pilot matlab implementation)
   Alexander A. Auer      : GIAO ZORA, VPT2 properties, NMR spectrum
   Ute Becker             : Parallelization
   Giovanni Bistoni       : ED, misc. LED, open-shell LED, HFLD
   Martin Brehm           : Molecular dynamics
   Dmytro Bykov           : SCF Hessian
   Vijay G. Chilkuri      : MRCI spin determinant printing, contributions to CSF-ICE
   Dipayan Datta          : RHF DLPNO-CCSD density
   Achintya Kumar Dutta   : EOM-CC, STEOM-CC
   Dmitry Ganyushin       : Spin-Orbit,Spin-Spin,Magnetic field MRCI
   Miquel Garcia          : C-PCM and meta-GGA Hessian, CC/C-PCM, Gaussian charge scheme
   Yang Guo               : DLPNO-NEVPT2, F12-NEVPT2, CIM, IAO-localization
   Andreas Hansen         : Spin unrestricted coupled pair/coupled cluster methods
   Benjamin Helmich-Paris : MC-RPA, TRAH-SCF, COSX integrals
   Lee Huntington         : MR-EOM, pCC
   Robert Izsak           : Overlap fitted RIJCOSX, COSX-SCS-MP3, EOM
   Marcus Kettner         : VPT2
   Christian Kollmar      : KDIIS, OOCD, Brueckner-CCSD(T), CCSD density, CASPT2, CASPT2-K
   Simone Kossmann        : Meta GGA functionals, TD-DFT gradient, OOMP2, MP2 Hessian
   Martin Krupicka        : Initial AUTO-CI
   Lucas Lang             : DCDCAS
   Marvin Lechner         : AUTO-CI (C++ implementation), FIC-MRCC
   Dagmar Lenk            : GEPOL surface, SMD
   Dimitrios Liakos       : Extrapolation schemes; Compound Job, initial MDCI parallelization
   Dimitrios Manganas     : Further ROCIS development; embedding schemes
   Dimitrios Pantazis     : SARC Basis sets
   Anastasios Papadopoulos: AUTO-CI, single reference methods and gradients
   Taras Petrenko         : DFT Hessian,TD-DFT gradient, ASA, ECA, R-Raman, ABS, FL, XAS/XES, NRVS
   Peter Pinski           : DLPNO-MP2, DLPNO-MP2 Gradient
   Christoph Reimann      : Effective Core Potentials
   Marius Retegan         : Local ZFS, SOC
   Christoph Riplinger    : Optimizer, TS searches, QM/MM, DLPNO-CCSD(T), (RO)-DLPNO pert. Triples
   Tobias Risthaus        : Range-separated hybrids, TD-DFT gradient, RPA, STAB
   Michael Roemelt        : Original ROCIS implementation
   Masaaki Saitow         : Open-shell DLPNO-CCSD energy and density
   Barbara Sandhoefer     : DKH picture change effects
   Avijit Sen             : IP-ROCIS
   Kantharuban Sivalingam : CASSCF convergence, NEVPT2, FIC-MRCI
   Bernardo de Souza      : ESD, SOC TD-DFT
   Georgi Stoychev        : AutoAux, RI-MP2 NMR, DLPNO-MP2 response
   Willem Van den Heuvel  : Paramagnetic NMR
   Boris Wezisla          : Elementary symmetry handling
   Frank Wennmohs         : Technical directorship


 We gratefully acknowledge several colleagues who have allowed us to
 interface, adapt or use parts of their codes:
   Stefan Grimme, W. Hujo, H. Kruse, P. Pracht,  : VdW corrections, initial TS optimization,
                  C. Bannwarth, S. Ehlert          DFT functionals, gCP, sTDA/sTD-DF
   Ed Valeev, F. Pavosevic, A. Kumar             : LibInt (2-el integral package), F12 methods
   Garnet Chan, S. Sharma, J. Yang, R. Olivares  : DMRG
   Ulf Ekstrom                                   : XCFun DFT Library
   Mihaly Kallay                                 : mrcc  (arbitrary order and MRCC methods)
   Jiri Pittner, Ondrej Demel                    : Mk-CCSD
   Frank Weinhold                                : gennbo (NPA and NBO analysis)
   Christopher J. Cramer and Donald G. Truhlar   : smd solvation model
   Lars Goerigk                                  : TD-DFT with DH, B97 family of functionals
   V. Asgeirsson, H. Jonsson                     : NEB implementation
   FAccTs GmbH                                   : IRC, NEB, NEB-TS, DLPNO-Multilevel, CI-OPT
                                                   MM, QMMM, 2- and 3-layer-ONIOM, Crystal-QMMM,
                                                   LR-CPCM, SF, NACMEs, symmetry and pop. for TD-DFT,
                                                   nearIR, NL-DFT gradient (VV10), updates on ESD,
                                                   ML-optimized integration grids
   S Lehtola, MJT Oliveira, MAL Marques          : LibXC Library
   Liviu Ungur et al                             : ANISO software


 Your calculation uses the libint2 library for the computation of 2-el integrals
 For citations please refer to: http://libint.valeyev.net

 Your ORCA version has been built with support for libXC version: 5.1.0
 For citations please refer to: https://tddft.org/programs/libxc/

 This ORCA versions uses:
   CBLAS   interface :  Fast vector & matrix operations
   LAPACKE interface :  Fast linear algebra routines
   SCALAPACK package :  Parallel linear algebra routines
   Shared memory     :  Shared parallel matrices
   BLAS/LAPACK       :  OpenBLAS 0.3.15  USE64BITINT DYNAMIC_ARCH NO_AFFINITY Zen SINGLE_THREADED
        Core in use  :  Zen
   Copyright (c) 2011-2014, The OpenBLAS Project


================================================================================

----- Orbital basis set information -----
Your calculation utilizes the basis: def2-SVP
   F. Weigend and R. Ahlrichs, Phys. Chem. Chem. Phys. 7, 3297 (2005).

----- AuxJ basis set information -----
Your calculation utilizes the auxiliary basis: def2/J
   F. Weigend, Phys. Chem. Chem. Phys. 8, 1057 (2006).

================================================================================
                                        WARNINGS
                       Please study these warnings very carefully!
================================================================================


WARNING: Geometry Optimization
  ===> : Switching off AutoStart
         For restart on a previous wavefunction, please use MOREAD

INFO   : the flag for use of the SHARK integral package has been found!

================================================================================
                                       INPUT FILE
================================================================================
NAME = pyrene_deriv_p1.inp
|  1> ! B3LYP def2-SVP Opt PAL8 FREQ
|  2> *xyz 0 1
|  3>   C   -1.773068    3.538284   -0.051505
|  4>   C   -0.575736    4.154721    0.001449
|  5>   C    0.574936    3.475963    0.043362
|  6>   C    0.561481    2.137066    0.033551
|  7>   C    1.723034    1.471892    0.075990
|  8>   C    1.735355    0.134562    0.067427
|  9>   C    0.603840   -0.597554    0.016682
| 10>   C    0.612508   -1.960851    0.007859
| 11>   C   -0.585138   -2.576792   -0.045439
| 12>   C   -1.735598   -1.897769   -0.087951
| 13>   C   -1.721823   -0.558922   -0.078080
| 14>   C   -2.883391    0.106211   -0.121078
| 15>   C   -2.895694    1.443521   -0.112116
| 16>   C   -1.764061    2.175156   -0.060648
| 17>   C   -0.604179    1.467370   -0.018372
| 18>   C   -0.555982    0.110420   -0.025775
| 19>   C   -2.899805    4.293032   -0.091794
| 20>   C    1.739156   -2.715955    0.049263
| 21>   C   -3.034393    5.635978   -0.088926
| 22>   C    1.868254   -4.058331    0.045003
| 23>   N    2.942894   -4.746372    0.084628
| 24>   C    2.784774   -6.223530    0.069041
| 25>   C    4.260872   -4.072764    0.141304
| 26>   N   -4.136353    6.237433   -0.128885
| 27>   O   -4.174687    7.551628   -0.122765
| 28>   O   -5.305249    5.640805   -0.178272
| 29>   H   -0.455017    5.247697    0.014143
| 30>   H    1.524373    4.038041    0.085790
| 31>   H    2.685309    2.012227    0.118521
| 32>   H    2.747899   -0.290574    0.105311
| 33>   H   -0.707302   -3.669599   -0.057631
| 34>   H   -2.685173   -2.459645   -0.130599
| 35>   H   -3.845650   -0.434095   -0.164440
| 36>   H   -3.907712    1.869764   -0.150679
| 37>   H   -3.870833    3.782872   -0.133675
| 38>   H    2.703322   -2.199605    0.093480
| 39>   H   -2.144458    6.282183   -0.049691
| 40>   H    0.979275   -4.702192    0.002950
| 41>   H    2.164991   -6.572032    0.926934
| 42>   H    2.326970   -6.563318   -0.888302
| 43>   H    3.772426   -6.728035    0.158227
| 44>   H    5.081260   -4.824099    0.163075
| 45>   H    4.434746   -3.446408   -0.763152
| 46>   H    4.365414   -3.466242    1.069629
| 47> *
| 48> 
| 49>                          ****END OF INPUT****
================================================================================

                       *****************************
                       * Geometry Optimization Run *
                       *****************************

Geometry optimization settings:
Update method            Update   .... BFGS
Choice of coordinates    CoordSys .... Z-matrix Internals
Initial Hessian          InHess   .... Almoef's Model

Convergence Tolerances:
Energy Change            TolE     ....  5.0000e-06 Eh
Max. Gradient            TolMAXG  ....  3.0000e-04 Eh/bohr
RMS Gradient             TolRMSG  ....  1.0000e-04 Eh/bohr
Max. Displacement        TolMAXD  ....  4.0000e-03 bohr
RMS Displacement         TolRMSD  ....  2.0000e-03 bohr
Strict Convergence                ....  False
------------------------------------------------------------------------------
                        ORCA OPTIMIZATION COORDINATE SETUP
------------------------------------------------------------------------------

The optimization will be done in new redundant internal coordinates
Making redundant internal coordinates   ...  (new redundants) done
Evaluating the initial hessian          ...  (Almloef) done
Evaluating the coordinates              ...  done
Calculating the B-matrix                .... done
Calculating the G-matrix                .... done
Diagonalizing the G-matrix              .... done
Small eigenvalue found = 2.282e-03
Small eigenvalue found = 7.422e-03
Small eigenvalue found = 9.283e-03
Small eigenvalue found = 1.862e-02
Small eigenvalue found = 2.160e-02
Small eigenvalue found = 2.555e-02
The first mode is                       ....  111
The number of degrees of freedom        ....  126

    -----------------------------------------------------------------
                    Redundant Internal Coordinates


    -----------------------------------------------------------------
         Definition                    Initial Value    Approx d2E/dq
    -----------------------------------------------------------------
      1. B(C   1,C   0)                  1.3477         0.729730   
      2. B(C   2,C   1)                  1.3366         0.760196   
      3. B(C   3,C   2)                  1.3390         0.753538   
      4. B(C   4,C   3)                  1.3392         0.752979   
      5. B(C   5,C   4)                  1.3374         0.757942   
      6. B(C   6,C   5)                  1.3487         0.727256   
      7. B(C   7,C   6)                  1.3634         0.689052   
      8. B(C   8,C   7)                  1.3478         0.729553   
      9. B(C   9,C   8)                  1.3366         0.760277   
     10. B(C  10,C   9)                  1.3390         0.753666   
     11. B(C  11,C  10)                  1.3392         0.752950   
     12. B(C  12,C  11)                  1.3374         0.757991   
     13. B(C  13,C  12)                  1.3485         0.727616   
     14. B(C  13,C   0)                  1.3632         0.689469   
     15. B(C  14,C   3)                  1.3453         0.736179   
     16. B(C  14,C  13)                  1.3594         0.699031   
     17. B(C  15,C  14)                  1.3578         0.703186   
     18. B(C  15,C  10)                  1.3453         0.736191   
     19. B(C  15,C   6)                  1.3595         0.698897   
     20. B(C  16,C   0)                  1.3568         0.705939   
     21. B(C  17,C   7)                  1.3569         0.705530   
     22. B(C  18,C  16)                  1.3497         0.724557   
     23. B(C  19,C  17)                  1.3486         0.727491   
     24. B(N  20,C  19)                  1.2766         0.848646   
     25. B(C  21,N  20)                  1.4857         0.393755   
     26. B(C  22,N  20)                  1.4812         0.400251   
     27. B(N  23,C  18)                  1.2560         0.915345   
     28. B(O  24,N  23)                  1.3148         0.660754   
     29. B(O  25,N  23)                  1.3133         0.664360   
     30. B(H  26,C   1)                  1.0997         0.347499   
     31. B(H  27,C   2)                  1.1042         0.341851   
     32. B(H  28,C   4)                  1.1044         0.341520   
     33. B(H  29,C   5)                  1.0988         0.348610   
     34. B(H  30,C   8)                  1.0997         0.347517   
     35. B(H  31,C   9)                  1.1042         0.341820   
     36. B(H  32,C  11)                  1.1044         0.341515   
     37. B(H  33,C  12)                  1.0988         0.348651   
     38. B(H  34,C  16)                  1.0977         0.350076   
     39. B(H  35,C  17)                  1.0946         0.354043   
     40. B(H  36,C  18)                  1.1005         0.346472   
     41. B(H  37,C  19)                  1.0985         0.349084   
     42. B(H  38,C  21)                  1.1143         0.329401   
     43. B(H  39,C  21)                  1.1142         0.329412   
     44. B(H  40,C  21)                  1.1126         0.331379   
     45. B(H  41,C  22)                  1.1127         0.331336   
     46. B(H  42,C  22)                  1.1138         0.329929   
     47. B(H  43,C  22)                  1.1138         0.329934   
     48. A(C   1,C   0,C  13)          116.8566         0.455741   
     49. A(C   1,C   0,C  16)          118.9804         0.457706   
     50. A(C  13,C   0,C  16)          124.1630         0.453000   
     51. A(C   0,C   1,C   2)          122.2610         0.463937   
     52. A(C   2,C   1,H  26)          114.1956         0.363152   
     53. A(C   0,C   1,H  26)          123.5434         0.360626   
     54. A(C   1,C   2,H  27)          118.8785         0.362137   
     55. A(C   1,C   2,C   3)          119.9274         0.466672   
     56. A(C   3,C   2,H  27)          121.1941         0.361594   
     57. A(C   2,C   3,C  14)          120.4468         0.463937   
     58. A(C   4,C   3,C  14)          120.3631         0.463875   
     59. A(C   2,C   3,C   4)          119.1900         0.465857   
     60. A(C   3,C   4,C   5)          120.2949         0.466355   
     61. A(C   3,C   4,H  28)          120.9258         0.361488   
     62. A(C   5,C   4,H  28)          118.7793         0.361894   
     63. A(C   6,C   5,H  29)          124.3592         0.360613   
     64. A(C   4,C   5,H  29)          113.2749         0.363166   
     65. A(C   4,C   5,C   6)          122.3658         0.463398   
     66. A(C   5,C   6,C   7)          122.5294         0.455409   
     67. A(C   7,C   6,C  15)          121.7332         0.452125   
     68. A(C   5,C   6,C  15)          115.7374         0.456588   
     69. A(C   6,C   7,C  17)          124.1625         0.452902   
     70. A(C   8,C   7,C  17)          118.9922         0.457637   
     71. A(C   6,C   7,C   8)          116.8453         0.455671   
     72. A(C   7,C   8,H  30)          123.5931         0.360614   
     73. A(C   7,C   8,C   9)          122.2723         0.463926   
     74. A(C   9,C   8,H  30)          114.1346         0.363162   
     75. A(C   8,C   9,H  31)          118.8776         0.362138   
     76. A(C  10,C   9,H  31)          121.1951         0.361599   
     77. A(C   8,C   9,C  10)          119.9273         0.466695   
     78. A(C  11,C  10,C  15)          120.3827         0.463873   
     79. A(C   9,C  10,C  15)          120.4435         0.463953   
     80. A(C   9,C  10,C  11)          119.1738         0.465868   
     81. A(C  12,C  11,H  32)          118.7792         0.361897   
     82. A(C  10,C  11,C  12)          120.2910         0.466357   
     83. A(C  10,C  11,H  32)          120.9298         0.361485   
     84. A(C  11,C  12,C  13)          122.3469         0.463445   
     85. A(C  13,C  12,H  33)          124.3166         0.360651   
     86. A(C  11,C  12,H  33)          113.3365         0.363177   
     87. A(C   0,C  13,C  12)          122.4953         0.455500   
     88. A(C  12,C  13,C  14)          115.7657         0.456645   
     89. A(C   0,C  13,C  14)          121.7390         0.452191   
     90. A(C  13,C  14,C  15)          123.3962         0.453814   
     91. A(C   3,C  14,C  15)          117.8347         0.458114   
     92. A(C   3,C  14,C  13)          118.7691         0.457620   
     93. A(C  10,C  15,C  14)          117.8175         0.458116   
     94. A(C   6,C  15,C  14)          123.4041         0.453798   
     95. A(C   6,C  15,C  10)          118.7784         0.457605   
     96. A(C  18,C  16,H  34)          111.9817         0.360642   
     97. A(C   0,C  16,H  34)          118.5047         0.359047   
     98. A(C   0,C  16,C  18)          129.5136         0.457113   
     99. A(C  19,C  17,H  35)          112.6658         0.361585   
    100. A(C   7,C  17,H  35)          118.0392         0.359701   
    101. A(C   7,C  17,C  19)          129.2949         0.457401   
    102. A(C  16,C  18,H  36)          120.2451         0.360007   
    103. A(C  16,C  18,N  23)          124.3243         0.476193   
    104. A(N  23,C  18,H  36)          115.4306         0.372379   
    105. A(C  17,C  19,N  20)          128.0938         0.469967   
    106. A(N  20,C  19,H  37)          111.5016         0.368042   
    107. A(C  17,C  19,H  37)          120.4046         0.360716   
    108. A(C  21,N  20,C  22)          123.1791         0.366384   
    109. A(C  19,N  20,C  22)          120.3375         0.419039   
    110. A(C  19,N  20,C  21)          116.4834         0.417819   
    111. A(H  39,C  21,H  40)          107.1761         0.283124   
    112. A(N  20,C  21,H  40)          110.8253         0.320777   
    113. A(H  38,C  21,H  39)          109.7304         0.282861   
    114. A(N  20,C  21,H  39)          110.8512         0.320464   
    115. A(N  20,C  21,H  38)          111.2289         0.320463   
    116. A(H  38,C  21,H  40)          106.8710         0.283123   
    117. A(H  42,C  22,H  43)          110.8500         0.283001   
    118. A(H  41,C  22,H  43)          106.3913         0.283188   
    119. A(N  20,C  22,H  43)          111.2873         0.321406   
    120. A(H  41,C  22,H  42)          106.2913         0.283188   
    121. A(N  20,C  22,H  42)          111.3194         0.321406   
    122. A(N  20,C  22,H  41)          110.4705         0.321630   
    123. A(O  24,N  23,O  25)          115.3615         0.432918   
    124. A(C  18,N  23,O  25)          124.3689         0.462381   
    125. A(C  18,N  23,O  24)          120.2696         0.461922   
    126. D(C   2,C   1,C   0,C  13)      0.0056         0.037780   
    127. D(H  26,C   1,C   0,C  16)     -0.0009         0.037780   
    128. D(C   2,C   1,C   0,C  16)    179.9944         0.037780   
    129. D(H  26,C   1,C   0,C  13)   -179.9898         0.037780   
    130. D(C   3,C   2,C   1,C   0)     -0.0094         0.041322   
    131. D(C   3,C   2,C   1,H  26)    179.9863         0.041322   
    132. D(H  27,C   2,C   1,H  26)     -0.0090         0.041322   
    133. D(H  27,C   2,C   1,C   0)    179.9953         0.041322   
    134. D(C  14,C   3,C   2,H  27)    179.9987         0.040531   
    135. D(C   4,C   3,C   2,C   1)    179.9996         0.040531   
    136. D(C   4,C   3,C   2,H  27)     -0.0052         0.040531   
    137. D(C  14,C   3,C   2,C   1)      0.0035         0.040531   
    138. D(H  28,C   4,C   3,C   2)     -0.0109         0.040465   
    139. D(C   5,C   4,C   3,C   2)    179.9904         0.040465   
    140. D(C   5,C   4,C   3,C  14)     -0.0135         0.040465   
    141. D(H  28,C   4,C   3,C  14)    179.9852         0.040465   
    142. D(H  29,C   5,C   4,H  28)     -0.0077         0.041053   
    143. D(C   6,C   5,C   4,C   3)      0.0027         0.041053   
    144. D(C   6,C   5,C   4,H  28)   -179.9961         0.041053   
    145. D(H  29,C   5,C   4,C   3)    179.9910         0.041053   
    146. D(C  15,C   6,C   5,H  29)   -179.9718         0.037501   
    147. D(C  15,C   6,C   5,C   4)      0.0152         0.037501   
    148. D(C   7,C   6,C   5,H  29)      0.0162         0.037501   
    149. D(C   7,C   6,C   5,C   4)   -179.9968         0.037501   
    150. D(C  17,C   7,C   6,C  15)   -179.9686         0.033352   
    151. D(C  17,C   7,C   6,C   5)      0.0441         0.033352   
    152. D(C   8,C   7,C   6,C   5)   -179.9687         0.033352   
    153. D(C   8,C   7,C   6,C  15)      0.0186         0.033352   
    154. D(H  30,C   8,C   7,C   6)   -179.9888         0.037760   
    155. D(C   9,C   8,C   7,C  17)    179.9813         0.037760   
    156. D(C   9,C   8,C   7,C   6)     -0.0066         0.037760   
    157. D(H  30,C   8,C   7,C  17)     -0.0009         0.037760   
    158. D(H  31,C   9,C   8,H  30)     -0.0096         0.041332   
    159. D(H  31,C   9,C   8,C   7)   -179.9933         0.041332   
    160. D(C  10,C   9,C   8,H  30)    179.9761         0.041332   
    161. D(C  10,C   9,C   8,C   7)     -0.0076         0.041332   
    162. D(C  15,C  10,C   9,H  31)    179.9957         0.040546   
    163. D(C  15,C  10,C   9,C   8)      0.0104         0.040546   
    164. D(C  11,C  10,C   9,H  31)     -0.0114         0.040546   
    165. D(C  11,C  10,C   9,C   8)   -179.9967         0.040546   
    166. D(H  32,C  11,C  10,C  15)    179.9835         0.040462   
    167. D(H  32,C  11,C  10,C   9)     -0.0094         0.040462   
    168. D(C  12,C  11,C  10,C  15)     -0.0156         0.040462   
    169. D(C  12,C  11,C  10,C   9)    179.9915         0.040462   
    170. D(H  33,C  12,C  11,H  32)      0.0000         0.041059   
    171. D(H  33,C  12,C  11,C  10)    179.9991         0.041059   
    172. D(C  13,C  12,C  11,H  32)   -179.9896         0.041059   
    173. D(C  13,C  12,C  11,C  10)      0.0095         0.041059   
    174. D(C  14,C  13,C  12,H  33)   -179.9810         0.037542   
    175. D(C   0,C  13,C  12,H  33)      0.0048         0.037542   
    176. D(C   0,C  13,C  12,C  11)    179.9932         0.037542   
    177. D(C  14,C  13,C   0,C  16)   -179.9842         0.033396   
    178. D(C  12,C  13,C   0,C  16)      0.0309         0.033396   
    179. D(C  14,C  13,C  12,C  11)      0.0075         0.037542   
    180. D(C  14,C  13,C   0,C   1)      0.0040         0.033396   
    181. D(C  12,C  13,C   0,C   1)   -179.9809         0.033396   
    182. D(C   3,C  14,C  13,C  12)    179.9762         0.034407   
    183. D(C   3,C  14,C  13,C   0)     -0.0096         0.034407   
    184. D(C  15,C  14,C   3,C   4)      0.0055         0.038514   
    185. D(C  15,C  14,C   3,C   2)   -179.9985         0.038514   
    186. D(C  13,C  14,C   3,C   4)   -179.9903         0.038514   
    187. D(C  15,C  14,C  13,C   0)    179.9949         0.034407   
    188. D(C  13,C  14,C   3,C   2)      0.0057         0.038514   
    189. D(C  15,C  14,C  13,C  12)     -0.0193         0.034407   
    190. D(C  10,C  15,C  14,C  13)      0.0137         0.034852   
    191. D(C   6,C  15,C  14,C  13)   -179.9907         0.034852   
    192. D(C   6,C  15,C  14,C   3)      0.0138         0.034852   
    193. D(C  14,C  15,C  10,C  11)      0.0043         0.038515   
    194. D(C  14,C  15,C  10,C   9)    179.9971         0.038515   
    195. D(C   6,C  15,C  10,C  11)   -179.9915         0.038515   
    196. D(C   6,C  15,C  10,C   9)      0.0013         0.038515   
    197. D(C  14,C  15,C   6,C   7)    179.9883         0.034393   
    198. D(C  14,C  15,C   6,C   5)     -0.0236         0.034393   
    199. D(C  10,C  15,C  14,C   3)   -179.9819         0.034852   
    200. D(C  10,C  15,C   6,C   7)     -0.0162         0.034393   
    201. D(C  10,C  15,C   6,C   5)    179.9720         0.034393   
    202. D(H  34,C  16,C   0,C  13)      0.0555         0.035149   
    203. D(H  34,C  16,C   0,C   1)   -179.9325         0.035149   
    204. D(C  18,C  16,C   0,C  13)   -179.9419         0.035149   
    205. D(C  18,C  16,C   0,C   1)      0.0701         0.035149   
    206. D(H  35,C  17,C   7,C   8)   -179.9304         0.035105   
    207. D(H  35,C  17,C   7,C   6)      0.0566         0.035105   
    208. D(C  19,C  17,C   7,C   8)      0.0430         0.035105   
    209. D(C  19,C  17,C   7,C   6)   -179.9700         0.035105   
    210. D(H  36,C  18,C  16,H  34)   -179.9853         0.037198   
    211. D(H  36,C  18,C  16,C   0)      0.0122         0.037198   
    212. D(N  23,C  18,C  16,H  34)      0.0181         0.037198   
    213. D(N  23,C  18,C  16,C   0)   -179.9844         0.037198   
    214. D(H  37,C  19,C  17,H  35)   -179.9955         0.037528   
    215. D(H  37,C  19,C  17,C   7)      0.0299         0.037528   
    216. D(N  20,C  19,C  17,H  35)     -0.0311         0.037528   
    217. D(N  20,C  19,C  17,C   7)    179.9944         0.037528   
    218. D(C  22,N  20,C  19,H  37)    179.8423         0.062329   
    219. D(C  22,N  20,C  19,C  17)     -0.1248         0.062329   
    220. D(C  21,N  20,C  19,H  37)     -0.0995         0.062329   
    221. D(C  21,N  20,C  19,C  17)    179.9335         0.062329   
    222. D(H  40,C  21,N  20,C  22)      2.9226         0.013247   
    223. D(H  40,C  21,N  20,C  19)   -177.1375         0.013247   
    224. D(H  39,C  21,N  20,C  22)   -115.9571         0.013247   
    225. D(H  39,C  21,N  20,C  19)     63.9828         0.013247   
    226. D(H  38,C  21,N  20,C  22)    121.6644         0.013247   
    227. D(H  38,C  21,N  20,C  19)    -58.3957         0.013247   
    228. D(H  43,C  22,N  20,C  21)   -117.6141         0.013677   
    229. D(H  43,C  22,N  20,C  19)     62.4482         0.013677   
    230. D(H  42,C  22,N  20,C  21)    118.1843         0.013677   
    231. D(H  42,C  22,N  20,C  19)    -61.7534         0.013677   
    232. D(H  41,C  22,N  20,C  21)      0.3372         0.013677   
    233. D(H  41,C  22,N  20,C  19)   -179.6004         0.013677   
    234. D(O  25,N  23,C  18,H  36)   -179.9686         0.074033   
    235. D(O  25,N  23,C  18,C  16)      0.0282         0.074033   
    236. D(O  24,N  23,C  18,H  36)      0.0225         0.074033   
    237. D(O  24,N  23,C  18,C  16)   -179.9807         0.074033   
    -----------------------------------------------------------------

Number of atoms                         .... 44
Number of degrees of freedom            .... 237

         *************************************************************
         *                GEOMETRY OPTIMIZATION CYCLE   1            *
         *************************************************************
---------------------------------
CARTESIAN COORDINATES (ANGSTROEM)
---------------------------------
  C     -1.773068    3.538284   -0.051505
  C     -0.575736    4.154721    0.001449
  C      0.574936    3.475963    0.043362
  C      0.561481    2.137066    0.033551
  C      1.723034    1.471892    0.075990
  C      1.735355    0.134562    0.067427
  C      0.603840   -0.597554    0.016682
  C      0.612508   -1.960851    0.007859
  C     -0.585138   -2.576792   -0.045439
  C     -1.735598   -1.897769   -0.087951
  C     -1.721823   -0.558922   -0.078080
  C     -2.883391    0.106211   -0.121078
  C     -2.895694    1.443521   -0.112116
  C     -1.764061    2.175156   -0.060648
  C     -0.604179    1.467370   -0.018372
  C     -0.555982    0.110420   -0.025775
  C     -2.899805    4.293032   -0.091794
  C      1.739156   -2.715955    0.049263
  C     -3.034393    5.635978   -0.088926
  C      1.868254   -4.058331    0.045003
  N      2.942894   -4.746372    0.084628
  C      2.784774   -6.223530    0.069041
  C      4.260872   -4.072764    0.141304
  N     -4.136353    6.237433   -0.128885
  O     -4.174687    7.551628   -0.122765
  O     -5.305249    5.640805   -0.178272
  H     -0.455017    5.247697    0.014143
  H      1.524373    4.038041    0.085790
  H      2.685309    2.012227    0.118521
  H      2.747899   -0.290574    0.105311
  H     -0.707302   -3.669599   -0.057631
  H     -2.685173   -2.459645   -0.130599
  H     -3.845650   -0.434095   -0.164440
  H     -3.907712    1.869764   -0.150679
  H     -3.870833    3.782872   -0.133675
  H      2.703322   -2.199605    0.093480
  H     -2.144458    6.282183   -0.049691
  H      0.979275   -4.702192    0.002950
  H      2.164991   -6.572032    0.926934
  H      2.326970   -6.563318   -0.888302
  H      3.772426   -6.728035    0.158227
  H      5.081260   -4.824099    0.163075
  H      4.434746   -3.446408   -0.763152
  H      4.365414   -3.466242    1.069629

----------------------------
CARTESIAN COORDINATES (A.U.)
----------------------------
  NO LB      ZA    FRAG     MASS         X           Y           Z
   0 C     6.0000    0    12.011   -3.350613    6.686388   -0.097330
   1 C     6.0000    0    12.011   -1.087983    7.851285    0.002738
   2 C     6.0000    0    12.011    1.086472    6.568618    0.081942
   3 C     6.0000    0    12.011    1.061045    4.038469    0.063402
   4 C     6.0000    0    12.011    3.256062    2.781473    0.143600
   5 C     6.0000    0    12.011    3.279346    0.254285    0.127419
   6 C     6.0000    0    12.011    1.141092   -1.129213    0.031524
   7 C     6.0000    0    12.011    1.157472   -3.705471    0.014851
   8 C     6.0000    0    12.011   -1.105751   -4.869431   -0.085867
   9 C     6.0000    0    12.011   -3.279805   -3.586264   -0.166203
  10 C     6.0000    0    12.011   -3.253774   -1.056210   -0.147550
  11 C     6.0000    0    12.011   -5.448819    0.200710   -0.228804
  12 C     6.0000    0    12.011   -5.472069    2.727859   -0.211869
  13 C     6.0000    0    12.011   -3.333592    4.110449   -0.114608
  14 C     6.0000    0    12.011   -1.141733    2.772927   -0.034718
  15 C     6.0000    0    12.011   -1.050654    0.208664   -0.048708
  16 C     6.0000    0    12.011   -5.479837    8.112655   -0.173466
  17 C     6.0000    0    12.011    3.286529   -5.132411    0.093094
  18 C     6.0000    0    12.011   -5.734172   10.650455   -0.168046
  19 C     6.0000    0    12.011    3.530488   -7.669134    0.085043
  20 N     7.0000    0    14.007    5.561264   -8.969343    0.159924
  21 C     6.0000    0    12.011    5.262460  -11.760767    0.130469
  22 C     6.0000    0    12.011    8.051881   -7.696409    0.267026
  23 N     7.0000    0    14.007   -7.816574   11.787040   -0.243557
  24 O     8.0000    0    15.999   -7.889015   14.270509   -0.231992
  25 O     8.0000    0    15.999  -10.025468   10.659577   -0.336885
  26 H     1.0000    0     1.008   -0.859858    9.916710    0.026726
  27 H     1.0000    0     1.008    2.880647    7.630792    0.162120
  28 H     1.0000    0     1.008    5.074499    3.802558    0.223972
  29 H     1.0000    0     1.008    5.192777   -0.549105    0.199009
  30 H     1.0000    0     1.008   -1.336607   -6.934537   -0.108907
  31 H     1.0000    0     1.008   -5.074242   -4.648055   -0.246796
  32 H     1.0000    0     1.008   -7.267225   -0.820321   -0.310747
  33 H     1.0000    0     1.008   -7.384505    3.533342   -0.284742
  34 H     1.0000    0     1.008   -7.314814    7.148592   -0.252609
  35 H     1.0000    0     1.008    5.108538   -4.156651    0.176652
  36 H     1.0000    0     1.008   -4.052438   11.871605   -0.093902
  37 H     1.0000    0     1.008    1.850562   -8.885855    0.005575
  38 H     1.0000    0     1.008    4.091240  -12.419341    1.751651
  39 H     1.0000    0     1.008    4.397336  -12.402874   -1.678648
  40 H     1.0000    0     1.008    7.128852  -12.714144    0.299006
  41 H     1.0000    0     1.008    9.602190   -9.116226    0.308167
  42 H     1.0000    0     1.008    8.380455   -6.512767   -1.442148
  43 H     1.0000    0     1.008    8.249437   -6.550248    2.021306

--------------------------------
INTERNAL COORDINATES (ANGSTROEM)
--------------------------------
 C      0   0   0     0.000000000000     0.00000000     0.00000000
 C      1   0   0     1.347739818848     0.00000000     0.00000000
 C      2   1   0     1.336605840821   122.26101163     0.00000000
 C      3   2   1     1.339000548676   119.92740860     0.00000000
 C      4   3   2     1.339202333782   119.19004617   179.99957069
 C      5   4   3     1.337414169549   120.29488202   179.99042038
 C      6   5   4     1.348664186410   122.36580536     0.00000000
 C      7   6   5     1.363353105311   122.52939810   180.00317544
 C      8   7   6     1.347805599336   116.84529391   180.03127335
 C      9   8   7     1.336576865082   122.27233753     0.00000000
 C     10   9   8     1.338954247417   119.92731128     0.00000000
 C     11  10   9     1.339212811437   119.17377038   180.00325918
 C     12  11  10     1.337396619314   120.29095443   179.99153236
 C     13  12  11     1.348529560276   122.34688131     0.00000000
 C      4   3   2     1.345344552873   120.44682383     0.00000000
 C     11  10   9     1.345340017717   120.44348845     0.00000000
 C      1   2   3     1.356762327821   118.98038340   179.99441463
 C      8   7   6     1.356920063208   124.16252674     0.04405220
 C     17   1   2     1.349676299742   129.51360515     0.07014125
 C     18   8   7     1.348576199768   129.29494461   180.03001459
 N     20  18   8     1.276644699165   128.09379817   179.99438020
 C     21  20  18     1.485678513654   116.48344381   179.93347272
 C     21  20  18     1.481224464801   120.33746334   359.87519172
 N     19  17   1     1.256049632899   124.32431240   180.01556820
 O     24  19  17     1.314768210743   120.26958891   180.01933566
 O     24  19  17     1.313286680420   124.36894044     0.02824331
 H      2   1   3     1.099695753912   123.54339801   180.00468576
 H      3   2   1     1.104156886605   118.87848937   179.99527094
 H      5   4   3     1.104420198027   120.92584782     0.00000000
 H      6   5   4     1.098827178353   113.27494594   179.99098551
 H      9   8   7     1.099681693495   123.59305869   180.01119681
 H     10   9   8     1.104181222402   118.87761171   180.00667892
 H     12  11  10     1.104424383904   120.92982044     0.00000000
 H     13  12  11     1.098795082052   113.33652788   179.99909360
 H     17   1   2     1.097685119032   118.50467455   180.06750656
 H     18   8   7     1.094617988681   118.03924485     0.05660534
 H     19  17   1     1.100501972499   120.24509208     0.00000000
 H     20  18   8     1.098457602537   120.40458577     0.02990651
 H     22  21  20     1.114255361460   111.22889153   301.60434983
 H     22  21  20     1.114246833969   110.85117997    63.98281464
 H     22  21  20     1.112625683114   110.82531411   182.86251799
 H     23  21  20     1.112661102587   110.47049186   180.39956981
 H     23  21  20     1.113819851928   111.31943776   298.24661812
 H     23  21  20     1.113815636393   111.28732747    62.44823115

---------------------------
INTERNAL COORDINATES (A.U.)
---------------------------
 C      0   0   0     0.000000000000     0.00000000     0.00000000
 C      1   0   0     2.546859157404     0.00000000     0.00000000
 C      2   1   0     2.525818988151   122.26101163     0.00000000
 C      3   2   1     2.530344330168   119.92740860     0.00000000
 C      4   3   2     2.530725648755   119.19004617   179.99957069
 C      5   4   3     2.527346508073   120.29488202   179.99042038
 C      6   5   4     2.548605958943   122.36580536     0.00000000
 C      7   6   5     2.576363992869   122.52939810   180.00317544
 C      8   7   6     2.546983464510   116.84529391   180.03127335
 C      9   8   7     2.525764231940   122.27233753     0.00000000
 C     10   9   8     2.530256833468   119.92731128     0.00000000
 C     11  10   9     2.530745448655   119.17377038   180.00325918
 C     12  11  10     2.527313342936   120.29095443   179.99153236
 C     13  12  11     2.548351552419   122.34688131     0.00000000
 C      4   3   2     2.542332760693   120.44682383     0.00000000
 C     11  10   9     2.542324190489   120.44348845     0.00000000
 C      1   2   3     2.563909228403   118.98038340   179.99441463
 C      8   7   6     2.564207305086   124.16252674     0.04405220
 C     17   1   2     2.550518575956   129.51360515     0.07014125
 C     18   8   7     2.548439688285   129.29494461   180.03001459
 N     20  18   8     2.412508851744   128.09379817   179.99438020
 C     21  20  18     2.807525513857   116.48344381   179.93347272
 C     21  20  18     2.799108581337   120.33746334   359.87519172
 N     19  17   1     2.373589816792   124.32431240   180.01556820
 O     24  19  17     2.484551847890   120.26958891   180.01933566
 O     24  19  17     2.481752161321   124.36894044     0.02824331
 H      2   1   3     2.078123805531   123.54339801   180.00468576
 H      3   2   1     2.086554124566   118.87848937   179.99527094
 H      5   4   3     2.087051711043   120.92584782     0.00000000
 H      6   5   4     2.076482435597   113.27494594   179.99098551
 H      9   8   7     2.078097235193   123.59305869   180.01119681
 H     10   9   8     2.086600112558   118.87761171   180.00667892
 H     12  11  10     2.087059621203   120.92982044     0.00000000
 H     13  12  11     2.076421782378   113.33652788   179.99909360
 H     17   1   2     2.074324256252   118.50467455   180.06750656
 H     18   8   7     2.068528219872   118.03924485     0.05660534
 H     19  17   1     2.079647337864   120.24509208     0.00000000
 H     20  18   8     2.075784038518   120.40458577     0.02990651
 H     22  21  20     2.105637476413   111.22889153   301.60434983
 H     22  21  20     2.105621361789   110.85117997    63.98281464
 H     22  21  20     2.102557830653   110.82531411   182.86251799
 H     23  21  20     2.102624763756   110.47049186   180.39956981
 H     23  21  20     2.104814482668   111.31943776   298.24661812
 H     23  21  20     2.104806516462   111.28732747    62.44823115

---------------------
BASIS SET INFORMATION
---------------------
There are 4 groups of distinct atoms

 Group   1 Type C   : 7s4p1d contracted to 3s2p1d pattern {511/31/1}
 Group   2 Type N   : 7s4p1d contracted to 3s2p1d pattern {511/31/1}
 Group   3 Type O   : 7s4p1d contracted to 3s2p1d pattern {511/31/1}
 Group   4 Type H   : 4s1p contracted to 2s1p pattern {31/1}

Atom   0C    basis set group =>   1
Atom   1C    basis set group =>   1
Atom   2C    basis set group =>   1
Atom   3C    basis set group =>   1
Atom   4C    basis set group =>   1
Atom   5C    basis set group =>   1
Atom   6C    basis set group =>   1
Atom   7C    basis set group =>   1
Atom   8C    basis set group =>   1
Atom   9C    basis set group =>   1
Atom  10C    basis set group =>   1
Atom  11C    basis set group =>   1
Atom  12C    basis set group =>   1
Atom  13C    basis set group =>   1
Atom  14C    basis set group =>   1
Atom  15C    basis set group =>   1
Atom  16C    basis set group =>   1
Atom  17C    basis set group =>   1
Atom  18C    basis set group =>   1
Atom  19C    basis set group =>   1
Atom  20N    basis set group =>   2
Atom  21C    basis set group =>   1
Atom  22C    basis set group =>   1
Atom  23N    basis set group =>   2
Atom  24O    basis set group =>   3
Atom  25O    basis set group =>   3
Atom  26H    basis set group =>   4
Atom  27H    basis set group =>   4
Atom  28H    basis set group =>   4
Atom  29H    basis set group =>   4
Atom  30H    basis set group =>   4
Atom  31H    basis set group =>   4
Atom  32H    basis set group =>   4
Atom  33H    basis set group =>   4
Atom  34H    basis set group =>   4
Atom  35H    basis set group =>   4
Atom  36H    basis set group =>   4
Atom  37H    basis set group =>   4
Atom  38H    basis set group =>   4
Atom  39H    basis set group =>   4
Atom  40H    basis set group =>   4
Atom  41H    basis set group =>   4
Atom  42H    basis set group =>   4
Atom  43H    basis set group =>   4
---------------------------------
AUXILIARY/J BASIS SET INFORMATION
---------------------------------
There are 4 groups of distinct atoms

 Group   1 Type C   : 12s5p4d2f1g contracted to 6s4p3d1f1g pattern {711111/2111/211/2/1}
 Group   2 Type N   : 12s5p4d2f1g contracted to 6s4p3d1f1g pattern {711111/2111/211/2/1}
 Group   3 Type O   : 12s5p4d2f1g contracted to 6s4p3d1f1g pattern {711111/2111/211/2/1}
 Group   4 Type H   : 5s2p1d contracted to 3s1p1d pattern {311/2/1}

Atom   0C    basis set group =>   1
Atom   1C    basis set group =>   1
Atom   2C    basis set group =>   1
Atom   3C    basis set group =>   1
Atom   4C    basis set group =>   1
Atom   5C    basis set group =>   1
Atom   6C    basis set group =>   1
Atom   7C    basis set group =>   1
Atom   8C    basis set group =>   1
Atom   9C    basis set group =>   1
Atom  10C    basis set group =>   1
Atom  11C    basis set group =>   1
Atom  12C    basis set group =>   1
Atom  13C    basis set group =>   1
Atom  14C    basis set group =>   1
Atom  15C    basis set group =>   1
Atom  16C    basis set group =>   1
Atom  17C    basis set group =>   1
Atom  18C    basis set group =>   1
Atom  19C    basis set group =>   1
Atom  20N    basis set group =>   2
Atom  21C    basis set group =>   1
Atom  22C    basis set group =>   1
Atom  23N    basis set group =>   2
Atom  24O    basis set group =>   3
Atom  25O    basis set group =>   3
Atom  26H    basis set group =>   4
Atom  27H    basis set group =>   4
Atom  28H    basis set group =>   4
Atom  29H    basis set group =>   4
Atom  30H    basis set group =>   4
Atom  31H    basis set group =>   4
Atom  32H    basis set group =>   4
Atom  33H    basis set group =>   4
Atom  34H    basis set group =>   4
Atom  35H    basis set group =>   4
Atom  36H    basis set group =>   4
Atom  37H    basis set group =>   4
Atom  38H    basis set group =>   4
Atom  39H    basis set group =>   4
Atom  40H    basis set group =>   4
Atom  41H    basis set group =>   4
Atom  42H    basis set group =>   4
Atom  43H    basis set group =>   4


           ************************************************************
           *        Program running with 8 parallel MPI-processes     *
           *              working on a common directory               *
           ************************************************************
------------------------------------------------------------------------------
                           ORCA GTO INTEGRAL CALCULATION
                           -- RI-GTO INTEGRALS CHOSEN --
------------------------------------------------------------------------------
------------------------------------------------------------------------------
                   ___                                                        
                  /   \      - P O W E R E D   B Y -                         
                 /     \                                                     
                 |  |  |   _    _      __       _____    __    __             
                 |  |  |  | |  | |    /  \     |  _  \  |  |  /  |          
                  \  \/   | |  | |   /    \    | | | |  |  | /  /          
                 / \  \   | |__| |  /  /\  \   | |_| |  |  |/  /          
                |  |  |   |  __  | /  /__\  \  |    /   |      \           
                |  |  |   | |  | | |   __   |  |    \   |  |\   \          
                \     /   | |  | | |  |  |  |  | |\  \  |  | \   \       
                 \___/    |_|  |_| |__|  |__|  |_| \__\ |__|  \__/        
                                                                              
                      - O R C A' S   B I G   F R I E N D -                    
                                      &                                       
                       - I N T E G R A L  F E E D E R -                       
                                                                              
 v1 FN, 2020, v2 2021                                                         
------------------------------------------------------------------------------


Reading SHARK input file pyrene_deriv_p1.SHARKINP.tmp ... ok
----------------------
SHARK INTEGRAL PACKAGE
----------------------

Number of atoms                             ...     44
Number of basis functions                   ...    454
Number of shells                            ...    210
Maximum angular momentum                    ...      2
Integral batch strategy                     ... SHARK/LIBINT Hybrid
RI-J (if used) integral strategy            ... SPLIT-RIJ (Revised 2003 algorithm where possible)
Printlevel                                  ...      1
Contraction scheme used                     ... SEGMENTED contraction
Coulomb Range Separation                    ... NOT USED
Exchange Range Separation                   ... NOT USED
Finite Nucleus Model                        ... NOT USED
Auxiliary Coulomb fitting basis             ... AVAILABLE
   # of basis functions in Aux-J            ...   1472
   # of shells in Aux-J                     ...    480
   Maximum angular momentum in Aux-J        ...      4
Auxiliary J/K fitting basis                 ... NOT available
Auxiliary Correlation fitting basis         ... NOT available
Auxiliary 'external' fitting basis          ... NOT available
Integral threshold                          ...     2.500000e-11
Primitive cut-off                           ...     2.500000e-12
Primitive pair pre-selection threshold      ...     2.500000e-12

Calculating pre-screening integrals         ... done (  0.1 sec) Dimension = 210
Organizing shell pair data                  ... done (  0.3 sec)
Shell pair information
Total number of shell pairs                 ...     22155
Shell pairs after pre-screening             ...     14166
Total number of primitive shell pairs       ...     81395
Primitive shell pairs kept                  ...     33335
          la=0 lb=0:   4279 shell pairs
          la=1 lb=0:   5226 shell pairs
          la=1 lb=1:   1664 shell pairs
          la=2 lb=0:   1724 shell pairs
          la=2 lb=1:   1085 shell pairs
          la=2 lb=2:    188 shell pairs

Calculating one electron integrals          ... done (  0.0 sec)
Calculating RI/J V-Matrix + Cholesky decomp.... done (  0.3 sec)
Calculating Nuclear repulsion               ... done (  0.0 sec) ENN=   2116.921258880712 Eh

SHARK setup successfully completed in   1.1 seconds

Maximum memory used throughout the entire GTOINT-calculation: 26.1 MB


           ************************************************************
           *        Program running with 8 parallel MPI-processes     *
           *              working on a common directory               *
           ************************************************************
-------------------------------------------------------------------------------
                                 ORCA SCF
-------------------------------------------------------------------------------

------------
SCF SETTINGS
------------
Hamiltonian:
 Density Functional     Method          .... DFT(GTOs)
 Exchange Functional    Exchange        .... B88
   X-Alpha parameter    XAlpha          ....  0.666667
   Becke's b parameter  XBeta           ....  0.004200
 Correlation Functional Correlation     .... LYP
 LDA part of GGA corr.  LDAOpt          .... VWN-5
 Gradients option       PostSCFGGA      .... off
 Hybrid DFT is turned on
   Fraction HF Exchange ScalHFX         ....  0.200000
   Scaling of DF-GGA-X  ScalDFX         ....  0.720000
   Scaling of DF-GGA-C  ScalDFC         ....  0.810000
   Scaling of DF-LDA-C  ScalLDAC        ....  1.000000
   Perturbative correction              ....  0.000000
   Density functional embedding theory  .... OFF
   NL short-range parameter             ....  4.800000
 RI-approximation to the Coulomb term is turned on
   Number of AuxJ basis functions       .... 1472
   RIJ-COSX (HFX calculated with COS-X)).... on


General Settings:
 Integral files         IntName         .... pyrene_deriv_p1
 Hartree-Fock type      HFTyp           .... RHF
 Total Charge           Charge          ....    0
 Multiplicity           Mult            ....    1
 Number of Electrons    NEL             ....  180
 Basis Dimension        Dim             ....  454
 Nuclear Repulsion      ENuc            ....   2116.9212588807 Eh

Convergence Acceleration:
 DIIS                   CNVDIIS         .... on
   Start iteration      DIISMaxIt       ....    12
   Startup error        DIISStart       ....  0.200000
   # of expansion vecs  DIISMaxEq       ....     5
   Bias factor          DIISBfac        ....   1.050
   Max. coefficient     DIISMaxC        ....  10.000
 Trust-Rad. Augm. Hess. CNVTRAH         .... auto
   Auto Start mean grad. ratio tolernc. ....  1.125000
   Auto Start start iteration           ....    20
   Auto Start num. interpolation iter.  ....    10
   Max. Number of Micro iterations      ....    16
   Max. Number of Macro iterations      .... Maxiter - #DIIS iter
   Number of Davidson start vectors     ....     2
   Converg. threshold I  (grad. norm)   ....   1.000e-05
   Converg. threshold II (energy diff.) ....   1.000e-08
   Grad. Scal. Fac. for Micro threshold ....   0.100
   Minimum threshold for Micro iter.    ....   0.010
   NR start threshold (gradient norm)   ....   0.001
   Initial trust radius                 ....   0.400
   Minimum AH scaling param. (alpha)    ....   1.000
   Maximum AH scaling param. (alpha)    .... 1000.000
   Orbital update algorithm             .... Taylor
   White noise on init. David. guess    .... on
   Maximum white noise                  ....   0.010
   Quad. conv. algorithm                .... NR
 SOSCF                  CNVSOSCF        .... on
   Start iteration      SOSCFMaxIt      ....   150
   Startup grad/error   SOSCFStart      ....  0.003300
 Level Shifting         CNVShift        .... on
   Level shift para.    LevelShift      ....    0.2500
   Turn off err/grad.   ShiftErr        ....    0.0010
 Zerner damping         CNVZerner       .... off
 Static damping         CNVDamp         .... on
   Fraction old density DampFac         ....    0.7000
   Max. Damping (<1)    DampMax         ....    0.9800
   Min. Damping (>=0)   DampMin         ....    0.0000
   Turn off err/grad.   DampErr         ....    0.1000
 Fernandez-Rico         CNVRico         .... off

SCF Procedure:
 Maximum # iterations   MaxIter         ....   125
 SCF integral mode      SCFMode         .... Direct
   Integral package                     .... SHARK and LIBINT hybrid scheme
 Reset frequency        DirectResetFreq ....    20
 Integral Threshold     Thresh          ....  2.500e-11 Eh
 Primitive CutOff       TCut            ....  2.500e-12 Eh

Convergence Tolerance:
 Convergence Check Mode ConvCheckMode   .... Total+1el-Energy
 Convergence forced     ConvForced      .... 0
 Energy Change          TolE            ....  1.000e-08 Eh
 1-El. energy change                    ....  1.000e-05 Eh
 Orbital Gradient       TolG            ....  1.000e-05
 Orbital Rotation angle TolX            ....  1.000e-05
 DIIS Error             TolErr          ....  5.000e-07


Diagonalization of the overlap matrix:
Smallest eigenvalue                        ... 1.177e-04
Time for diagonalization                   ...    0.054 sec
Threshold for overlap eigenvalues          ... 1.000e-08
Number of eigenvalues below threshold      ... 0
Time for construction of square roots      ...    0.047 sec
Total time needed                          ...    0.121 sec

Time for model grid setup =    0.520 sec

------------------------------
INITIAL GUESS: MODEL POTENTIAL
------------------------------
Loading Hartree-Fock densities                     ... done
Calculating cut-offs                               ... done
Initializing the effective Hamiltonian             ... done
Setting up the integral package (SHARK)            ... done
Starting the Coulomb interaction                   ... done (   0.4 sec)
Reading the grid                                   ... done
Mapping shells                                     ... done
Starting the XC term evaluation                    ... done (   0.3 sec)
  promolecular density results
     # of electrons  =    179.977144739
     EX              =   -148.535221586
     EC              =     -6.176403367
     EX+EC           =   -154.711624954
Transforming the Hamiltonian                       ... done (   0.0 sec)
Diagonalizing the Hamiltonian                      ... done (   0.0 sec)
Back transforming the eigenvectors                 ... done (   0.0 sec)
Now organizing SCF variables                       ... done
                      ------------------
                      INITIAL GUESS DONE (   1.3 sec)
                      ------------------
-------------------
DFT GRID GENERATION
-------------------

General Integration Accuracy     IntAcc      ... 4.388
Radial Grid Type                 RadialGrid  ... OptM3 with GC (2021)
Angular Grid (max. ang.)         AngularGrid ... 4 (Lebedev-302)
Angular grid pruning method      GridPruning ... 4 (adaptive)
Weight generation scheme         WeightScheme... Becke
Basis function cutoff            BFCut       ... 1.0000e-11
Integration weight cutoff        WCut        ... 1.0000e-14
Angular grids for H and He will be reduced by one unit
Partially contracted basis set               ... off
Rotationally invariant grid construction     ... off

Total number of grid points                  ...   211811
Total number of batches                      ...     3330
Average number of points per batch           ...       63
Average number of grid points per atom       ...     4814
Time for grid setup =    2.159 sec

--------------------
COSX GRID GENERATION
--------------------

GRIDX 1
-------
General Integration Accuracy     IntAcc      ... 3.816
Radial Grid Type                 RadialGrid  ... OptM3 with GC (2021)
Angular Grid (max. ang.)         AngularGrid ... 1 (Lebedev-50)
Angular grid pruning method      GridPruning ... 4 (adaptive)
Weight generation scheme         WeightScheme... Becke
Basis function cutoff            BFCut       ... 1.0000e-11
Integration weight cutoff        WCut        ... 1.0000e-14
Angular grids for H and He will be reduced by one unit
Partially contracted basis set               ... on
Rotationally invariant grid construction     ... off

Total number of grid points                  ...    26974
Total number of batches                      ...      441
Average number of points per batch           ...       61
Average number of grid points per atom       ...      613
UseSFitting                                  ... on

GRIDX 2
-------
General Integration Accuracy     IntAcc      ... 4.020
Radial Grid Type                 RadialGrid  ... OptM3 with GC (2021)
Angular Grid (max. ang.)         AngularGrid ... 2 (Lebedev-110)
Angular grid pruning method      GridPruning ... 4 (adaptive)
Weight generation scheme         WeightScheme... Becke
Basis function cutoff            BFCut       ... 1.0000e-11
Integration weight cutoff        WCut        ... 1.0000e-14
Angular grids for H and He will be reduced by one unit
Partially contracted basis set               ... on
Rotationally invariant grid construction     ... off

Total number of grid points                  ...    58535
Total number of batches                      ...      937
Average number of points per batch           ...       62
Average number of grid points per atom       ...     1330
UseSFitting                                  ... on

GRIDX 3
-------
General Integration Accuracy     IntAcc      ... 4.338
Radial Grid Type                 RadialGrid  ... OptM3 with GC (2021)
Angular Grid (max. ang.)         AngularGrid ... 3 (Lebedev-194)
Angular grid pruning method      GridPruning ... 4 (adaptive)
Weight generation scheme         WeightScheme... Becke
Basis function cutoff            BFCut       ... 1.0000e-11
Integration weight cutoff        WCut        ... 1.0000e-14
Angular grids for H and He will be reduced by one unit
Partially contracted basis set               ... on
Rotationally invariant grid construction     ... off

Total number of grid points                  ...   128380
Total number of batches                      ...     2026
Average number of points per batch           ...       63
Average number of grid points per atom       ...     2918
UseSFitting                                  ... on

Time for X-Grid setup             =    2.350 sec

--------------
SCF ITERATIONS
--------------
ITER       Energy         Delta-E        Max-DP      RMS-DP      [F,P]     Damp
               ***  Starting incremental Fock matrix formation  ***
  0  -1106.7968247015   0.000000000000 0.19800689  0.00325768  0.2632430 0.7000
  1  -1107.0725201930  -0.275695491549 0.12094257  0.00216539  0.0818246 0.7000
                               ***Turning on DIIS***
  2  -1107.1888628724  -0.116342679383 0.22570923  0.00420991  0.0376656 0.0000
  3  -1107.3733021244  -0.184439251970 0.08386284  0.00102776  0.0495040 0.0000
  4  -1107.4099014687  -0.036599344308 0.02212869  0.00028420  0.0278592 0.0000
  5  -1107.4128061571  -0.002904688467 0.01417312  0.00015953  0.0092271 0.0000
                      *** Initiating the SOSCF procedure ***
                           *** Shutting down DIIS ***
                      *** Re-Reading the Fockian *** 
                      *** Removing any level shift *** 
ITER      Energy       Delta-E        Grad      Rot      Max-DP    RMS-DP
  6  -1107.41309708  -0.0002909197  0.000869  0.000869  0.002927  0.000051
               *** Restarting incremental Fock matrix formation ***
  7  -1107.41308154   0.0000155362  0.000649  0.008167  0.002596  0.000057
  8  -1107.41310424  -0.0000226976  0.000460  0.003277  0.001557  0.000040
  9  -1107.41310549  -0.0000012535  0.000446  0.002909  0.001460  0.000025
 10  -1107.41311161  -0.0000061212  0.000489  0.001794  0.001821  0.000023
 11  -1107.41310725   0.0000043665  0.000541  0.001502  0.001125  0.000018
 12  -1107.41311428  -0.0000070351  0.000060  0.000569  0.000339  0.000008
 13  -1107.41311378   0.0000004985  0.000112  0.000363  0.000210  0.000005
 14  -1107.41311467  -0.0000008849  0.000032  0.000244  0.000175  0.000003
 15  -1107.41311457   0.0000001014  0.000060  0.000149  0.000116  0.000002
 16  -1107.41311470  -0.0000001310  0.000006  0.000031  0.000049  0.000001
 17  -1107.41311469   0.0000000079  0.000008  0.000027  0.000032  0.000000
                  ***Gradient check signals convergence***
              ***Rediagonalizing the Fockian in SOSCF/NRSCF***

               *****************************************************
               *                     SUCCESS                       *
               *           SCF CONVERGED AFTER  18 CYCLES          *
               *****************************************************

Old exchange energy                            =    -30.125041602 Eh
New exchange energy                            =    -30.125151653 Eh
Exchange energy change after final integration =     -0.000110051 Eh
Total energy after final integration           =  -1107.413224756 Eh
Final COS-X integration done in                =    17.963 sec

----------------
TOTAL SCF ENERGY
----------------

Total Energy       :        -1107.41322476 Eh          -30134.24584 eV

Components:
Nuclear Repulsion  :         2116.92125888 Eh           57604.35600 eV
Electronic Energy  :        -3224.33448364 Eh          -87738.60184 eV
One Electron Energy:        -5707.25796537 Eh         -155302.38466 eV
Two Electron Energy:         2482.92348173 Eh           67563.78281 eV
Max COSX asymmetry :            0.00000394 Eh               0.00011 eV

Virial components:
Potential Energy   :        -2207.92452738 Eh          -60080.68083 eV
Kinetic Energy     :         1100.51130262 Eh           29946.43499 eV
Virial Ratio       :            2.00627156


DFT components:
N(Alpha)           :       90.000194622189 electrons
N(Beta)            :       90.000194622189 electrons
N(Total)           :      180.000389244379 electrons
E(X)               :     -119.714526000159 Eh       
E(C)               :       -7.263706982320 Eh       
E(XC)              :     -126.978232982479 Eh       
DFET-embed. en.    :        0.000000000000 Eh       

---------------
SCF CONVERGENCE
---------------

  Last Energy change         ...   -1.5869e-08  Tolerance :   1.0000e-08
  Last MAX-Density change    ...    5.3291e-15  Tolerance :   1.0000e-07
  Last RMS-Density change    ...    4.3261e-17  Tolerance :   5.0000e-09
  Last Orbital Gradient      ...    1.0865e-06  Tolerance :   1.0000e-05
  Last Orbital Rotation      ...    7.0344e-06  Tolerance :   1.0000e-05

             **** THE GBW FILE WAS UPDATED (pyrene_deriv_p1.gbw) ****
             **** DENSITY pyrene_deriv_p1.scfp WAS UPDATED ****
             **** ENERGY FILE WAS UPDATED (pyrene_deriv_p1.en.tmp) ****
             **** THE GBW FILE WAS UPDATED (pyrene_deriv_p1.gbw) ****
             **** DENSITY pyrene_deriv_p1.scfp WAS UPDATED ****
----------------
ORBITAL ENERGIES
----------------

  NO   OCC          E(Eh)            E(eV) 
   0   2.0000     -19.098776      -519.7041 
   1   2.0000     -19.096200      -519.6340 
   2   2.0000     -14.490413      -394.3042 
   3   2.0000     -14.388640      -391.5348 
   4   2.0000     -10.260892      -279.2131 
   5   2.0000     -10.257086      -279.1095 
   6   2.0000     -10.237982      -278.5897 
   7   2.0000     -10.209909      -277.8257 
   8   2.0000     -10.202043      -277.6117 
   9   2.0000     -10.192588      -277.3544 
  10   2.0000     -10.189421      -277.2683 
  11   2.0000     -10.188170      -277.2342 
  12   2.0000     -10.185906      -277.1726 
  13   2.0000     -10.184539      -277.1354 
  14   2.0000     -10.184511      -277.1346 
  15   2.0000     -10.182343      -277.0757 
  16   2.0000     -10.181935      -277.0645 
  17   2.0000     -10.181433      -277.0509 
  18   2.0000     -10.180971      -277.0383 
  19   2.0000     -10.180869      -277.0355 
  20   2.0000     -10.179872      -277.0084 
  21   2.0000     -10.179427      -276.9963 
  22   2.0000     -10.178774      -276.9785 
  23   2.0000     -10.176057      -276.9046 
  24   2.0000     -10.173033      -276.8223 
  25   2.0000     -10.170362      -276.7496 
  26   2.0000      -1.117223       -30.4012 
  27   2.0000      -0.990690       -26.9580 
  28   2.0000      -0.937430       -25.5088 
  29   2.0000      -0.927909       -25.2497 
  30   2.0000      -0.895298       -24.3623 
  31   2.0000      -0.865809       -23.5599 
  32   2.0000      -0.854317       -23.2471 
  33   2.0000      -0.832418       -22.6512 
  34   2.0000      -0.804043       -21.8791 
  35   2.0000      -0.787692       -21.4342 
  36   2.0000      -0.764502       -20.8032 
  37   2.0000      -0.754221       -20.5234 
  38   2.0000      -0.751374       -20.4459 
  39   2.0000      -0.740654       -20.1542 
  40   2.0000      -0.706524       -19.2255 
  41   2.0000      -0.683203       -18.5909 
  42   2.0000      -0.653727       -17.7888 
  43   2.0000      -0.645379       -17.5616 
  44   2.0000      -0.629198       -17.1214 
  45   2.0000      -0.621609       -16.9148 
  46   2.0000      -0.582795       -15.8586 
  47   2.0000      -0.569377       -15.4935 
  48   2.0000      -0.554446       -15.0872 
  49   2.0000      -0.548141       -14.9157 
  50   2.0000      -0.538908       -14.6644 
  51   2.0000      -0.529569       -14.4103 
  52   2.0000      -0.513921       -13.9845 
  53   2.0000      -0.506734       -13.7889 
  54   2.0000      -0.501816       -13.6551 
  55   2.0000      -0.499535       -13.5930 
  56   2.0000      -0.481845       -13.1117 
  57   2.0000      -0.476061       -12.9543 
  58   2.0000      -0.472357       -12.8535 
  59   2.0000      -0.461944       -12.5701 
  60   2.0000      -0.456344       -12.4177 
  61   2.0000      -0.455227       -12.3874 
  62   2.0000      -0.447750       -12.1839 
  63   2.0000      -0.443684       -12.0733 
  64   2.0000      -0.442791       -12.0490 
  65   2.0000      -0.432756       -11.7759 
  66   2.0000      -0.431281       -11.7357 
  67   2.0000      -0.414593       -11.2817 
  68   2.0000      -0.409700       -11.1485 
  69   2.0000      -0.406755       -11.0684 
  70   2.0000      -0.405067       -11.0224 
  71   2.0000      -0.401233       -10.9181 
  72   2.0000      -0.393933       -10.7195 
  73   2.0000      -0.378841       -10.3088 
  74   2.0000      -0.376301       -10.2397 
  75   2.0000      -0.374277       -10.1846 
  76   2.0000      -0.366539        -9.9740 
  77   2.0000      -0.350450        -9.5362 
  78   2.0000      -0.337791        -9.1918 
  79   2.0000      -0.336345        -9.1524 
  80   2.0000      -0.326565        -8.8863 
  81   2.0000      -0.309579        -8.4241 
  82   2.0000      -0.286046        -7.7837 
  83   2.0000      -0.270505        -7.3608 
  84   2.0000      -0.261636        -7.1195 
  85   2.0000      -0.248377        -6.7587 
  86   2.0000      -0.239508        -6.5173 
  87   2.0000      -0.229513        -6.2454 
  88   2.0000      -0.218755        -5.9526 
  89   2.0000      -0.182041        -4.9536 
  90   0.0000      -0.102675        -2.7939 
  91   0.0000      -0.050238        -1.3670 
  92   0.0000      -0.029561        -0.8044 
  93   0.0000      -0.011622        -0.3162 
  94   0.0000       0.007671         0.2087 
  95   0.0000       0.026531         0.7219 
  96   0.0000       0.041352         1.1253 
  97   0.0000       0.042134         1.1465 
  98   0.0000       0.054631         1.4866 
  99   0.0000       0.055315         1.5052 
 100   0.0000       0.061386         1.6704 
 101   0.0000       0.065250         1.7755 
 102   0.0000       0.077235         2.1017 
 103   0.0000       0.083243         2.2652 
 104   0.0000       0.096049         2.6136 
 105   0.0000       0.101198         2.7537 
 106   0.0000       0.109788         2.9875 
 107   0.0000       0.111657         3.0383 
 108   0.0000       0.111940         3.0460 
 109   0.0000       0.119333         3.2472 
 110   0.0000       0.124406         3.3853 
 111   0.0000       0.131262         3.5718 
 112   0.0000       0.134860         3.6697 
 113   0.0000       0.139301         3.7906 
 114   0.0000       0.171248         4.6599 
 115   0.0000       0.191256         5.2043 
 116   0.0000       0.193881         5.2758 
 117   0.0000       0.204541         5.5659 
 118   0.0000       0.215427         5.8621 
 119   0.0000       0.221202         6.0192 
 120   0.0000       0.228507         6.2180 
 121   0.0000       0.233460         6.3528 
 122   0.0000       0.240439         6.5427 
 123   0.0000       0.246171         6.6987 
 124   0.0000       0.253522         6.8987 
 125   0.0000       0.263928         7.1818 
 126   0.0000       0.267769         7.2864 
 127   0.0000       0.278338         7.5740 
 128   0.0000       0.282523         7.6878 
 129   0.0000       0.283922         7.7259 
 130   0.0000       0.290940         7.9169 
 131   0.0000       0.293485         7.9861 
 132   0.0000       0.300508         8.1772 
 133   0.0000       0.313484         8.5303 
 134   0.0000       0.319830         8.7030 
 135   0.0000       0.327484         8.9113 
 136   0.0000       0.340381         9.2622 
 137   0.0000       0.341674         9.2974 
 138   0.0000       0.344448         9.3729 
 139   0.0000       0.350720         9.5436 
 140   0.0000       0.363647         9.8953 
 141   0.0000       0.366900         9.9838 
 142   0.0000       0.372668        10.1408 
 143   0.0000       0.375678        10.2227 
 144   0.0000       0.382394        10.4055 
 145   0.0000       0.390049        10.6138 
 146   0.0000       0.397473        10.8158 
 147   0.0000       0.417239        11.3537 
 148   0.0000       0.420434        11.4406 
 149   0.0000       0.426583        11.6079 
 150   0.0000       0.429231        11.6800 
 151   0.0000       0.432693        11.7742 
 152   0.0000       0.444938        12.1074 
 153   0.0000       0.448971        12.2171 
 154   0.0000       0.453901        12.3513 
 155   0.0000       0.464013        12.6264 
 156   0.0000       0.466300        12.6887 
 157   0.0000       0.468963        12.7611 
 158   0.0000       0.473456        12.8834 
 159   0.0000       0.478512        13.0210 
 160   0.0000       0.489225        13.3125 
 161   0.0000       0.492576        13.4037 
 162   0.0000       0.497925        13.5492 
 163   0.0000       0.500230        13.6120 
 164   0.0000       0.500860        13.6291 
 165   0.0000       0.508036        13.8244 
 166   0.0000       0.523608        14.2481 
 167   0.0000       0.532210        14.4822 
 168   0.0000       0.533564        14.5190 
 169   0.0000       0.540839        14.7170 
 170   0.0000       0.543847        14.7988 
 171   0.0000       0.546271        14.8648 
 172   0.0000       0.549213        14.9449 
 173   0.0000       0.561618        15.2824 
 174   0.0000       0.573031        15.5930 
 175   0.0000       0.586501        15.9595 
 176   0.0000       0.590121        16.0580 
 177   0.0000       0.598176        16.2772 
 178   0.0000       0.600422        16.3383 
 179   0.0000       0.603785        16.4298 
 180   0.0000       0.604512        16.4496 
 181   0.0000       0.606063        16.4918 
 182   0.0000       0.611174        16.6309 
 183   0.0000       0.617359        16.7992 
 184   0.0000       0.619765        16.8647 
 185   0.0000       0.621730        16.9181 
 186   0.0000       0.634816        17.2742 
 187   0.0000       0.641581        17.4583 
 188   0.0000       0.645638        17.5687 
 189   0.0000       0.650605        17.7039 
 190   0.0000       0.652346        17.7512 
 191   0.0000       0.653477        17.7820 
 192   0.0000       0.658553        17.9201 
 193   0.0000       0.663627        18.0582 
 194   0.0000       0.671844        18.2818 
 195   0.0000       0.672674        18.3044 
 196   0.0000       0.673834        18.3359 
 197   0.0000       0.685649        18.6575 
 198   0.0000       0.687403        18.7052 
 199   0.0000       0.696833        18.9618 
 200   0.0000       0.698144        18.9975 
 201   0.0000       0.710726        19.3398 
 202   0.0000       0.730194        19.8696 
 203   0.0000       0.738369        20.0920 
 204   0.0000       0.740196        20.1418 
 205   0.0000       0.744933        20.2707 
 206   0.0000       0.753318        20.4988 
 207   0.0000       0.767954        20.8971 
 208   0.0000       0.770850        20.9759 
 209   0.0000       0.772474        21.0201 
 210   0.0000       0.785060        21.3626 
 211   0.0000       0.795049        21.6344 
 212   0.0000       0.801642        21.8138 
 213   0.0000       0.814658        22.1680 
 214   0.0000       0.826041        22.4777 
 215   0.0000       0.831257        22.6196 
 216   0.0000       0.833374        22.6773 
 217   0.0000       0.842808        22.9340 
 218   0.0000       0.854707        23.2578 
 219   0.0000       0.856982        23.3197 
 220   0.0000       0.865583        23.5537 
 221   0.0000       0.879691        23.9376 
 222   0.0000       0.880119        23.9492 
 223   0.0000       0.892435        24.2844 
 224   0.0000       0.898045        24.4370 
 225   0.0000       0.909063        24.7369 
 226   0.0000       0.917551        24.9678 
 227   0.0000       0.933169        25.3928 
 228   0.0000       0.938483        25.5374 
 229   0.0000       0.947227        25.7754 
 230   0.0000       0.953403        25.9434 
 231   0.0000       0.958177        26.0733 
 232   0.0000       0.974924        26.5290 
 233   0.0000       1.000980        27.2380 
 234   0.0000       1.021363        27.7927 
 235   0.0000       1.028454        27.9856 
 236   0.0000       1.030682        28.0463 
 237   0.0000       1.039771        28.2936 
 238   0.0000       1.056408        28.7463 
 239   0.0000       1.065394        28.9908 
 240   0.0000       1.079593        29.3772 
 241   0.0000       1.084215        29.5030 
 242   0.0000       1.088991        29.6330 
 243   0.0000       1.112636        30.2764 
 244   0.0000       1.134924        30.8829 
 245   0.0000       1.152405        31.3585 
 246   0.0000       1.155526        31.4435 
 247   0.0000       1.163203        31.6524 
 248   0.0000       1.177204        32.0334 
 249   0.0000       1.179281        32.0899 
 250   0.0000       1.191330        32.4177 
 251   0.0000       1.203795        32.7569 
 252   0.0000       1.205474        32.8026 
 253   0.0000       1.216693        33.1079 
 254   0.0000       1.219236        33.1771 
 255   0.0000       1.220588        33.2139 
 256   0.0000       1.228926        33.4408 
 257   0.0000       1.232238        33.5309 
 258   0.0000       1.242491        33.8099 
 259   0.0000       1.246564        33.9207 
 260   0.0000       1.249453        33.9994 
 261   0.0000       1.252287        34.0765 
 262   0.0000       1.254257        34.1301 
 263   0.0000       1.258830        34.2545 
 264   0.0000       1.266016        34.4500 
 265   0.0000       1.270399        34.5693 
 266   0.0000       1.280352        34.8402 
 267   0.0000       1.289547        35.0904 
 268   0.0000       1.295946        35.2645 
 269   0.0000       1.310559        35.6621 
 270   0.0000       1.314741        35.7759 
 271   0.0000       1.324772        36.0489 
 272   0.0000       1.344556        36.5872 
 273   0.0000       1.363905        37.1137 
 274   0.0000       1.364593        37.1325 
 275   0.0000       1.368158        37.2295 
 276   0.0000       1.368983        37.2519 
 277   0.0000       1.379098        37.5272 
 278   0.0000       1.395067        37.9617 
 279   0.0000       1.402726        38.1701 
 280   0.0000       1.421718        38.6869 
 281   0.0000       1.432587        38.9827 
 282   0.0000       1.442277        39.2464 
 283   0.0000       1.452840        39.5338 
 284   0.0000       1.455708        39.6118 
 285   0.0000       1.468848        39.9694 
 286   0.0000       1.477639        40.2086 
 287   0.0000       1.479506        40.2594 
 288   0.0000       1.485371        40.4190 
 289   0.0000       1.497045        40.7367 
 290   0.0000       1.499921        40.8149 
 291   0.0000       1.522357        41.4254 
 292   0.0000       1.570386        42.7324 
 293   0.0000       1.629875        44.3511 
 294   0.0000       1.655305        45.0431 
 295   0.0000       1.666064        45.3359 
 296   0.0000       1.676878        45.6302 
 297   0.0000       1.689596        45.9762 
 298   0.0000       1.691348        46.0239 
 299   0.0000       1.691984        46.0412 
 300   0.0000       1.705773        46.4164 
 301   0.0000       1.706884        46.4467 
 302   0.0000       1.721867        46.8544 
 303   0.0000       1.722273        46.8654 
 304   0.0000       1.732602        47.1465 
 305   0.0000       1.734485        47.1977 
 306   0.0000       1.742294        47.4102 
 307   0.0000       1.747935        47.5637 
 308   0.0000       1.753228        47.7078 
 309   0.0000       1.759072        47.8668 
 310   0.0000       1.765133        48.0317 
 311   0.0000       1.765414        48.0394 
 312   0.0000       1.774621        48.2899 
 313   0.0000       1.776519        48.3415 
 314   0.0000       1.779662        48.4271 
 315   0.0000       1.784449        48.5573 
 316   0.0000       1.793848        48.8131 
 317   0.0000       1.805606        49.1330 
 318   0.0000       1.806940        49.1693 
 319   0.0000       1.808107        49.2011 
 320   0.0000       1.812071        49.3090 
 321   0.0000       1.823300        49.6145 
 322   0.0000       1.825015        49.6612 
 323   0.0000       1.840156        50.0732 
 324   0.0000       1.844701        50.1969 
 325   0.0000       1.854238        50.4564 
 326   0.0000       1.856819        50.5266 
 327   0.0000       1.884902        51.2908 
 328   0.0000       1.890502        51.4432 
 329   0.0000       1.903614        51.8000 
 330   0.0000       1.904105        51.8133 
 331   0.0000       1.920990        52.2728 
 332   0.0000       1.923478        52.3405 
 333   0.0000       1.931492        52.5586 
 334   0.0000       1.942576        52.8602 
 335   0.0000       1.957105        53.2555 
 336   0.0000       1.960448        53.3465 
 337   0.0000       1.972883        53.6849 
 338   0.0000       1.975323        53.7513 
 339   0.0000       1.993115        54.2354 
 340   0.0000       1.994603        54.2759 
 341   0.0000       2.006708        54.6053 
 342   0.0000       2.027436        55.1693 
[...]
 23:    265.71   0.000350    1.77  0.000411  (-0.012061  0.016266 -0.000945)
 24:    279.75   0.000771    3.90  0.000860  ( 0.019065 -0.022286  0.000533)
 25:    289.19   0.000026    0.13  0.000028  (-0.000387 -0.003662  0.003799)
 26:    327.88   0.001632    8.25  0.001553  ( 0.016478 -0.031994  0.016062)
 27:    389.32   0.000524    2.65  0.000420  ( 0.009527 -0.017725 -0.003903)
 28:    404.33   0.000168    0.85  0.000130  ( 0.006440 -0.009377 -0.000618)
 29:    419.55   0.002374   12.00  0.001765  ( 0.022643 -0.035394  0.000035)
 30:    449.49   0.000824    4.16  0.000572  ( 0.017268 -0.016205  0.003325)
 31:    451.79   0.000049    0.25  0.000034  ( 0.000650 -0.002543  0.005221)
 32:    495.00   0.000249    1.26  0.000157  (-0.012420  0.000166 -0.001708)
 33:    505.92   0.000810    4.09  0.000500  (-0.009928  0.019924 -0.002044)
 34:    524.54   0.000268    1.36  0.000160  (-0.001289  0.012506 -0.001272)
 35:    526.94   0.000839    4.24  0.000497  ( 0.000319 -0.022263 -0.001168)
 36:    560.38   0.000581    2.93  0.000323  ( 0.002080 -0.006934  0.016460)
 37:    564.86   0.000209    1.06  0.000116  ( 0.008268 -0.002020  0.006565)
 38:    569.86   0.001040    5.25  0.000569  ( 0.002999 -0.007209  0.022549)
 39:    580.56   0.000973    4.92  0.000523  (-0.009374  0.020859  0.000542)
 40:    601.63   0.002190   11.07  0.001136  ( 0.018818 -0.027660  0.004120)
 41:    629.34   0.000267    1.35  0.000132  (-0.004427  0.010464 -0.001755)
 42:    667.62   0.000235    1.19  0.000110  (-0.004883  0.009111 -0.001751)
 43:    701.29   0.000477    2.41  0.000212  ( 0.011043 -0.009490  0.000451)
 44:    716.74   0.001291    6.53  0.000562  (-0.000767  0.000075  0.023699)
 45:    733.49   0.000499    2.52  0.000212  (-0.014569  0.000231  0.000251)
 46:    741.10   0.000162    0.82  0.000068  (-0.004117  0.005050  0.005083)
 47:    760.16   0.002443   12.35  0.001003  ( 0.003761 -0.001965 -0.031384)
 48:    774.77   0.002485   12.56  0.001001  ( 0.024419 -0.020060  0.001438)
 49:    795.98   0.001954    9.88  0.000766  ( 0.025338 -0.010534  0.003619)
 50:    814.27   0.000530    2.68  0.000203  ( 0.006647 -0.006903  0.010543)
 51:    820.22   0.003629   18.34  0.001381  (-0.006060  0.036647 -0.001035)
 52:    825.60   0.001726    8.72  0.000652  (-0.013506  0.021674  0.000424)
 53:    845.85   0.006398   32.33  0.002360  (-0.003859  0.007803 -0.047798)
 54:    858.80   0.000734    3.71  0.000267  ( 0.014591 -0.005929 -0.004301)
 55:    869.64   0.006811   34.42  0.002444  (-0.001447  0.004205 -0.049238)
 56:    881.07   0.002672   13.50  0.000946  (-0.000058 -0.001484  0.030726)
 57:    888.31   0.002932   14.82  0.001030  ( 0.002522 -0.000621 -0.031991)
 58:    899.28   0.005253   26.54  0.001823  ( 0.027960 -0.031993 -0.004171)
 59:    944.58   0.000893    4.51  0.000295  ( 0.000819 -0.000540 -0.017146)
 60:    957.36   0.007571   38.26  0.002468  (-0.018396  0.030884  0.034289)
 61:    991.04   0.021885  110.60  0.006891  (-0.043774  0.070388 -0.004528)
 62:    991.73   0.010034   50.71  0.003157  ( 0.029434 -0.047242 -0.007702)
 63:    993.70   0.000703    3.56  0.000221  ( 0.003930 -0.007548  0.012186)
 64:   1000.25   0.001530    7.73  0.000477  (-0.012841  0.017680 -0.000192)
 65:   1008.56   0.000900    4.55  0.000278  ( 0.001112 -0.002073  0.016517)
 66:   1013.39   0.020953  105.89  0.006452  (-0.043882  0.067227 -0.002643)
 67:   1014.45   0.001008    5.09  0.000310  ( 0.002105 -0.004212  0.016968)
 68:   1016.95   0.000817    4.13  0.000251  (-0.003786  0.004483  0.014706)
 69:   1082.59   0.003953   19.98  0.001139  (-0.032585  0.008337 -0.002863)
 70:   1108.23   0.046628  235.64  0.013130  (-0.051185  0.102499  0.002008)
 71:   1113.57   0.000523    2.64  0.000146  ( 0.010405 -0.004765  0.003940)
 72:   1127.88   0.025951  131.14  0.007180  (-0.047568  0.070095 -0.001999)
 73:   1133.38   0.001988   10.05  0.000548  (-0.016358  0.016706 -0.000914)
 74:   1151.72   0.019193   96.99  0.005200  (-0.040824  0.058900 -0.008045)
 75:   1180.93   0.000035    0.18  0.000009  ( 0.001101 -0.002840  0.000181)
 76:   1189.61   0.001427    7.21  0.000374  ( 0.016191 -0.010584  0.000494)
 77:   1204.42   0.013820   69.84  0.003581  ( 0.035981 -0.047801  0.001101)
 78:   1212.83   0.004806   24.29  0.001237  ( 0.009693  0.033803 -0.000054)
 79:   1233.72   0.003006   15.19  0.000760  (-0.014921  0.023176 -0.000726)
 80:   1249.00   0.022988  116.17  0.005744  (-0.014914  0.074298  0.000980)
 81:   1261.23   0.129646  655.18  0.032078  (-0.097904  0.149960 -0.002169)
 82:   1267.08   0.001560    7.88  0.000384  ( 0.008581 -0.017600 -0.000913)
 83:   1278.12   0.029542  149.29  0.007213  ( 0.052546 -0.066716  0.000941)
 84:   1283.29   0.007856   39.70  0.001910  ( 0.023583 -0.036758  0.001745)
 85:   1320.41   0.009733   49.18  0.002300  (-0.027967  0.038958 -0.000537)
 86:   1331.62   0.020275  102.46  0.004751  ( 0.039828 -0.056254  0.000726)
 87:   1344.28   0.012167   61.49  0.002825  (-0.025265  0.046721 -0.001816)
 88:   1371.11   0.002206   11.15  0.000502  (-0.008925  0.020548  0.000401)
 89:   1382.90   0.009884   49.95  0.002230  (-0.011279  0.045858  0.000466)
 90:   1394.09   0.261522  1321.63  0.058541  (-0.161174  0.180397 -0.004596)
 91:   1403.03   0.053769  271.73  0.011959  (-0.073487  0.080906 -0.003653)
 92:   1405.16   0.000307    1.55  0.000068  (-0.003942  0.007244  0.000431)
 93:   1418.89   0.011899   60.13  0.002617  ( 0.037423 -0.034878 -0.000124)
 94:   1427.06   0.018634   94.17  0.004075  (-0.025851  0.058362 -0.000630)
 95:   1436.34   0.020715  104.69  0.004501  (-0.034387  0.057557  0.002313)
 96:   1444.70   0.000080    0.40  0.000017  (-0.001435 -0.003900 -0.000091)
 97:   1452.24   0.001938    9.80  0.000417  (-0.002936 -0.005728  0.019368)
 98:   1456.77   0.002527   12.77  0.000541  ( 0.000583 -0.020460 -0.011062)
 99:   1460.62   0.012955   65.47  0.002768  (-0.033093  0.039769 -0.009542)
100:   1468.37   0.008143   41.15  0.001731  ( 0.032906 -0.025247  0.003232)
101:   1486.23   0.007434   37.57  0.001561  ( 0.012732 -0.036905  0.006069)
102:   1504.46   0.005180   26.18  0.001074  (-0.023114  0.023177  0.001751)
103:   1508.98   0.004490   22.69  0.000929  ( 0.028257 -0.011365 -0.000988)
104:   1535.49   0.000840    4.25  0.000171  ( 0.012715 -0.002991  0.000387)
105:   1549.86   0.008740   44.17  0.001760  (-0.011152  0.040439 -0.000397)
106:   1571.48   0.009370   47.35  0.001861  (-0.031301  0.029668 -0.000845)
107:   1619.47   0.001442    7.29  0.000278  (-0.005101  0.015863 -0.000402)
108:   1624.31   0.115149  581.92  0.022122  ( 0.118960 -0.089139  0.005034)
109:   1642.88   0.104570  528.46  0.019863  ( 0.050964 -0.131399 -0.000376)
110:   1657.86   0.005034   25.44  0.000948  ( 0.030755 -0.000894  0.000978)
111:   1664.32   0.078401  396.21  0.014700  (-0.034815  0.116139 -0.000358)
112:   1691.02   0.033567  169.63  0.006195  (-0.064233  0.045419 -0.002398)
113:   1692.93   0.148503  750.47  0.027374  (-0.070020  0.149902 -0.000731)
114:   2975.97   0.015049   76.05  0.001578  ( 0.002982  0.038803  0.007969)
115:   2982.77   0.046159  233.27  0.004829  (-0.045863  0.046981  0.022773)
116:   3066.38   0.009071   45.84  0.000923  ( 0.009417 -0.018477  0.022206)
117:   3070.49   0.004046   20.45  0.000411  (-0.010923  0.002143 -0.016951)
118:   3126.64   0.000887    4.48  0.000089  ( 0.006369  0.006878 -0.000819)
119:   3129.14   0.004799   24.25  0.000479  ( 0.017517 -0.013092  0.000566)
120:   3168.67   0.000867    4.38  0.000085  ( 0.009148 -0.001292 -0.000083)
121:   3173.03   0.003020   15.26  0.000297  (-0.017197 -0.001104 -0.000189)
122:   3173.63   0.000402    2.03  0.000040  (-0.006138 -0.001352 -0.000259)
123:   3177.19   0.000387    1.96  0.000038  ( 0.005866 -0.001603  0.001039)
124:   3177.44   0.001761    8.90  0.000173  (-0.013144 -0.000356 -0.000168)
125:   3195.68   0.005842   29.52  0.000570  ( 0.005361  0.023272 -0.000358)
126:   3197.87   0.002313   11.69  0.000226  (-0.005199 -0.014095 -0.000133)
127:   3205.92   0.000912    4.61  0.000089  (-0.008973 -0.002847 -0.000415)
128:   3209.93   0.000377    1.91  0.000037  ( 0.002004  0.005712  0.000232)
129:   3223.90   0.000513    2.59  0.000050  ( 0.006298 -0.003152  0.000109)
130:   3229.71   0.005389   27.24  0.000521  (-0.021032  0.008848 -0.000314)
131:   3253.79   0.003342   16.89  0.000320  (-0.009537  0.015149 -0.000166)

* The epsilon (eps) is given for a Dirac delta lineshape.
** The dipole moment derivative (T) already includes vibrational overlap.

The first frequency considered to be a vibration is 7
The total number of vibrations considered is 125


--------------------------
THERMOCHEMISTRY AT 298.15K
--------------------------

Temperature         ... 298.15 K
Pressure            ... 1.00 atm
Total Mass          ... 342.40 AMU

Throughout the following assumptions are being made:
  (1) The electronic state is orbitally nondegenerate
  (2) There are no thermally accessible electronically excited states
  (3) Hindered rotations indicated by low frequency modes are not
      treated as such but are treated as vibrations and this may
      cause some error
  (4) All equations used are the standard statistical mechanics
      equations for an ideal gas
  (5) All vibrations are strictly harmonic

freq.      18.94  E(vib)   ...       0.57 
freq.      28.38  E(vib)   ...       0.55 
freq.      54.49  E(vib)   ...       0.52 
freq.      56.57  E(vib)   ...       0.52 
freq.      87.78  E(vib)   ...       0.48 
freq.      95.02  E(vib)   ...       0.47 
freq.     105.54  E(vib)   ...       0.45 
freq.     122.34  E(vib)   ...       0.43 
freq.     136.95  E(vib)   ...       0.42 
freq.     169.38  E(vib)   ...       0.38 
freq.     185.44  E(vib)   ...       0.37 
freq.     196.51  E(vib)   ...       0.36 
freq.     208.32  E(vib)   ...       0.34 
freq.     220.24  E(vib)   ...       0.33 
freq.     234.71  E(vib)   ...       0.32 
freq.     261.97  E(vib)   ...       0.29 
freq.     265.71  E(vib)   ...       0.29 
freq.     279.75  E(vib)   ...       0.28 
freq.     289.19  E(vib)   ...       0.27 
freq.     327.88  E(vib)   ...       0.24 
freq.     389.32  E(vib)   ...       0.20 
freq.     404.33  E(vib)   ...       0.19 
freq.     419.55  E(vib)   ...       0.18 
freq.     449.49  E(vib)   ...       0.17 
freq.     451.79  E(vib)   ...       0.16 
freq.     495.00  E(vib)   ...       0.14 
freq.     505.92  E(vib)   ...       0.14 
freq.     524.54  E(vib)   ...       0.13 
freq.     526.94  E(vib)   ...       0.13 
freq.     560.38  E(vib)   ...       0.11 
freq.     564.86  E(vib)   ...       0.11 
freq.     569.86  E(vib)   ...       0.11 
freq.     580.56  E(vib)   ...       0.11 
freq.     601.63  E(vib)   ...       0.10 
freq.     629.34  E(vib)   ...       0.09 
freq.     667.62  E(vib)   ...       0.08 
freq.     701.29  E(vib)   ...       0.07 
freq.     716.74  E(vib)   ...       0.07 
freq.     733.49  E(vib)   ...       0.06 
freq.     741.10  E(vib)   ...       0.06 
freq.     760.16  E(vib)   ...       0.06 
freq.     774.77  E(vib)   ...       0.05 
freq.     795.98  E(vib)   ...       0.05 
freq.     814.27  E(vib)   ...       0.05 
freq.     820.22  E(vib)   ...       0.05 
freq.     825.60  E(vib)   ...       0.04 
freq.     845.85  E(vib)   ...       0.04 
freq.     858.80  E(vib)   ...       0.04 
freq.     869.64  E(vib)   ...       0.04 
freq.     881.07  E(vib)   ...       0.04 
freq.     888.31  E(vib)   ...       0.04 
freq.     899.28  E(vib)   ...       0.03 
freq.     944.58  E(vib)   ...       0.03 
freq.     957.36  E(vib)   ...       0.03 
freq.     991.04  E(vib)   ...       0.02 
freq.     991.73  E(vib)   ...       0.02 
freq.     993.70  E(vib)   ...       0.02 
freq.    1000.25  E(vib)   ...       0.02 
freq.    1008.56  E(vib)   ...       0.02 
freq.    1013.39  E(vib)   ...       0.02 
freq.    1014.45  E(vib)   ...       0.02 
freq.    1016.95  E(vib)   ...       0.02 
freq.    1082.59  E(vib)   ...       0.02 
freq.    1108.23  E(vib)   ...       0.02 
freq.    1113.57  E(vib)   ...       0.01 
freq.    1127.88  E(vib)   ...       0.01 
freq.    1133.38  E(vib)   ...       0.01 
freq.    1151.72  E(vib)   ...       0.01 
freq.    1180.93  E(vib)   ...       0.01 
freq.    1189.61  E(vib)   ...       0.01 
freq.    1204.42  E(vib)   ...       0.01 
freq.    1212.83  E(vib)   ...       0.01 
freq.    1233.72  E(vib)   ...       0.01 
freq.    1249.00  E(vib)   ...       0.01 
freq.    1261.23  E(vib)   ...       0.01 
freq.    1267.08  E(vib)   ...       0.01 
freq.    1278.12  E(vib)   ...       0.01 
freq.    1283.29  E(vib)   ...       0.01 
freq.    1320.41  E(vib)   ...       0.01 
freq.    1331.62  E(vib)   ...       0.01 
freq.    1344.28  E(vib)   ...       0.01 
freq.    1371.11  E(vib)   ...       0.01 
freq.    1382.90  E(vib)   ...       0.01 
freq.    1394.09  E(vib)   ...       0.00 
freq.    1403.03  E(vib)   ...       0.00 
freq.    1405.16  E(vib)   ...       0.00 
freq.    1418.89  E(vib)   ...       0.00 
freq.    1427.06  E(vib)   ...       0.00 
freq.    1436.34  E(vib)   ...       0.00 
freq.    1444.70  E(vib)   ...       0.00 
freq.    1452.24  E(vib)   ...       0.00 
freq.    1456.77  E(vib)   ...       0.00 
freq.    1460.62  E(vib)   ...       0.00 
freq.    1468.37  E(vib)   ...       0.00 
freq.    1486.23  E(vib)   ...       0.00 
freq.    1504.46  E(vib)   ...       0.00 
freq.    1508.98  E(vib)   ...       0.00 
freq.    1535.49  E(vib)   ...       0.00 
freq.    1549.86  E(vib)   ...       0.00 
freq.    1571.48  E(vib)   ...       0.00 
freq.    1619.47  E(vib)   ...       0.00 
freq.    1624.31  E(vib)   ...       0.00 
freq.    1642.88  E(vib)   ...       0.00 
freq.    1657.86  E(vib)   ...       0.00 
freq.    1664.32  E(vib)   ...       0.00 
freq.    1691.02  E(vib)   ...       0.00 
freq.    1692.93  E(vib)   ...       0.00 
freq.    2975.97  E(vib)   ...       0.00 
freq.    2982.77  E(vib)   ...       0.00 
freq.    3066.38  E(vib)   ...       0.00 
freq.    3070.49  E(vib)   ...       0.00 
freq.    3126.64  E(vib)   ...       0.00 
freq.    3129.14  E(vib)   ...       0.00 
freq.    3168.67  E(vib)   ...       0.00 
freq.    3173.03  E(vib)   ...       0.00 
freq.    3173.63  E(vib)   ...       0.00 
freq.    3177.19  E(vib)   ...       0.00 
freq.    3177.44  E(vib)   ...       0.00 
freq.    3195.68  E(vib)   ...       0.00 
freq.    3197.87  E(vib)   ...       0.00 
freq.    3205.92  E(vib)   ...       0.00 
freq.    3209.93  E(vib)   ...       0.00 
freq.    3223.90  E(vib)   ...       0.00 
freq.    3229.71  E(vib)   ...       0.00 
freq.    3253.79  E(vib)   ...       0.00 

------------
INNER ENERGY
------------

The inner energy is: U= E(el) + E(ZPE) + E(vib) + E(rot) + E(trans)
    E(el)   - is the total energy from the electronic structure calculation
              = E(kin-el) + E(nuc-el) + E(el-el) + E(nuc-nuc)
    E(ZPE)  - the the zero temperature vibrational energy from the frequency calculation
    E(vib)  - the the finite temperature correction to E(ZPE) due to population
              of excited vibrational states
    E(rot)  - is the rotational thermal energy
    E(trans)- is the translational thermal energy

Summary of contributions to the inner energy U:
Electronic energy                ...  -1107.58513121 Eh
Zero point energy                ...      0.34998898 Eh     219.62 kcal/mol
Thermal vibrational correction   ...      0.01808209 Eh      11.35 kcal/mol
Thermal rotational correction    ...      0.00141627 Eh       0.89 kcal/mol
Thermal translational correction ...      0.00141627 Eh       0.89 kcal/mol
-----------------------------------------------------------------------
Total thermal energy                  -1107.21422760 Eh


Summary of corrections to the electronic energy:
(perhaps to be used in another calculation)
Total thermal correction                  0.02091463 Eh      13.12 kcal/mol
Non-thermal (ZPE) correction              0.34998898 Eh     219.62 kcal/mol
-----------------------------------------------------------------------
Total correction                          0.37090361 Eh     232.75 kcal/mol


--------
ENTHALPY
--------

The enthalpy is H = U + kB*T
                kB is Boltzmann's constant
Total free energy                 ...  -1107.21422760 Eh 
Thermal Enthalpy correction       ...      0.00094421 Eh       0.59 kcal/mol
-----------------------------------------------------------------------
Total Enthalpy                    ...  -1107.21328340 Eh


Note: Only C1 symmetry has been detected, increase convergence thresholds 
      if your molecule has a higher symmetry. Symmetry factor of 1.0 is   
      used for the rotational entropy correction. 
 

Note: Rotational entropy computed according to Herzberg 
Infrared and Raman Spectra, Chapter V,1, Van Nostrand Reinhold, 1945 
Point Group:  C1, Symmetry Number:   1  
Rotational constants in cm-1:     0.023123     0.002461     0.002226 

Vibrational entropy computed according to the QRRHO of S. Grimme
Chem.Eur.J. 2012 18 9955


-------
ENTROPY
-------

The entropy contributions are T*S = T*(S(el)+S(vib)+S(rot)+S(trans))
     S(el)   - electronic entropy
     S(vib)  - vibrational entropy
     S(rot)  - rotational entropy
     S(trans)- translational entropy
The entropies will be listed as multiplied by the temperature to get
units of energy

Electronic entropy                ...      0.00000000 Eh      0.00 kcal/mol
Vibrational entropy               ...      0.03176599 Eh     19.93 kcal/mol
Rotational entropy                ...      0.01700845 Eh     10.67 kcal/mol
Translational entropy             ...      0.02061439 Eh     12.94 kcal/mol
-----------------------------------------------------------------------
Final entropy term                ...      0.06938883 Eh     43.54 kcal/mol

In case the symmetry of your molecule has not been determined correctly
or in case you have a reason to use a different symmetry number we print 
out the resulting rotational entropy values for sn=1,12 :
 --------------------------------------------------------
|  sn= 1 | S(rot)=       0.01700845 Eh     10.67 kcal/mol|
|  sn= 2 | S(rot)=       0.01635399 Eh     10.26 kcal/mol|
|  sn= 3 | S(rot)=       0.01597116 Eh     10.02 kcal/mol|
|  sn= 4 | S(rot)=       0.01569954 Eh      9.85 kcal/mol|
|  sn= 5 | S(rot)=       0.01548885 Eh      9.72 kcal/mol|
|  sn= 6 | S(rot)=       0.01531671 Eh      9.61 kcal/mol|
|  sn= 7 | S(rot)=       0.01517116 Eh      9.52 kcal/mol|
|  sn= 8 | S(rot)=       0.01504508 Eh      9.44 kcal/mol|
|  sn= 9 | S(rot)=       0.01493387 Eh      9.37 kcal/mol|
|  sn=10 | S(rot)=       0.01483439 Eh      9.31 kcal/mol|
|  sn=11 | S(rot)=       0.01474440 Eh      9.25 kcal/mol|
|  sn=12 | S(rot)=       0.01466225 Eh      9.20 kcal/mol|
 --------------------------------------------------------


-------------------
GIBBS FREE ENERGY
-------------------

The Gibbs free energy is G = H - T*S

Total enthalpy                    ...  -1107.21328340 Eh 
Total entropy correction          ...     -0.06938883 Eh    -43.54 kcal/mol
-----------------------------------------------------------------------
Final Gibbs free energy         ...  -1107.28267223 Eh

For completeness - the Gibbs free energy minus the electronic energy
G-E(el)                           ...      0.30245899 Eh    189.80 kcal/mol


Timings for individual modules:

Sum of individual times         ...     5309.281 sec (=  88.488 min)
GTO integral calculation        ...       45.443 sec (=   0.757 min)   0.9 %
SCF iterations                  ...     2976.462 sec (=  49.608 min)  56.1 %
SCF Gradient evaluation         ...      766.327 sec (=  12.772 min)  14.4 %
Geometry relaxation             ...        3.876 sec (=   0.065 min)   0.1 %
Analytical frequency calculation...     1517.173 sec (=  25.286 min)  28.6 %
                             ****ORCA TERMINATED NORMALLY****
TOTAL RUN TIME: 0 days 1 hours 29 minutes 19 seconds 286 msec
