39
* (null), Energy   -1000.0000000
C    -7.216842    3.478899   -0.272013    0.006259   -0.002574   -0.134169
C    -5.951060    4.103682   -0.230140    0.006509   -0.003761   -0.115493
C    -4.775716    3.378474   -0.154161    0.002310   -0.002067   -0.043078
C    -4.798223    1.969240   -0.117351    0.000087   -0.001299   -0.008950
C    -3.595319    1.197891   -0.029938   -0.001320   -0.000503    0.014596
C    -3.625354   -0.167321    0.003984   -0.001661   -0.000422    0.020362
C    -4.861379   -0.897770   -0.054259   -0.001223   -0.000256    0.012616
C    -4.906202   -2.326947   -0.028176   -0.001335   -0.000241    0.015630
C    -6.169190   -2.955012   -0.073977   -0.001467   -0.000100    0.019647
C    -7.350786   -2.230239   -0.125945   -0.001497    0.000182    0.023449
C    -7.337288   -0.823470   -0.157092   -0.000892   -0.000096    0.013078
C    -8.539739   -0.050760   -0.230895   -0.001464    0.000691    0.032969
C    -8.514196    1.314032   -0.269496   -0.000442   -0.000037    0.009637
C    -7.277575    2.048406   -0.235366    0.002513   -0.001255   -0.066961
C    -6.055907    1.291418   -0.160405    0.000566   -0.000911   -0.024827
C    -6.081683   -0.143718   -0.125624   -0.000593   -0.000329    0.000755
C    -8.434115    4.281559   -0.349576    0.013920   -0.006871   -0.291086
C    -3.678330   -3.123972    0.030285   -0.000928    0.000195    0.012863
C    -8.523308    5.634946   -0.411436   -0.016199    0.026801    0.482338
C    -3.589642   -4.380538    0.512603    0.000666   -0.000873    0.009808
C    -9.776333    6.311112   -0.483112   -0.007062    0.006112    0.131063
O    -2.431011   -5.069144    0.480825    0.000955   -0.000136    0.005933
C    -2.411858   -6.316906    1.147004    0.002426   -0.002451    0.001568
N   -10.789811    6.879708   -0.543169   -0.000500   -0.009379   -0.127475
H    -5.890053    5.193255   -0.254397    0.016035   -0.007666   -0.259750
H    -3.813824    3.896893   -0.120114    0.003603   -0.003019   -0.065315
H    -2.639705    1.727427    0.015201   -0.001958   -0.000157    0.023966
H    -2.685344   -0.713095    0.086818   -0.002812   -0.000284    0.034663
H    -6.219284   -4.045690   -0.102902   -0.002014   -0.000171    0.023439
H    -8.309930   -2.754163   -0.166427   -0.002135    0.000477    0.034679
H    -9.497169   -0.578768   -0.256990   -0.003797    0.002437    0.083358
H    -9.462783    1.846961   -0.326455   -0.004584    0.000411    0.085261
H    -9.383026    3.743327   -0.359501    0.043930   -0.042830   -1.156932
H    -2.747081   -2.687678   -0.338322   -0.002042    0.001242    0.011262
H    -7.639507    6.279078   -0.410352   -0.052898    0.075230    1.471303
H    -4.445933   -4.903362    0.958829    0.001846   -0.002487    0.010163
H    -1.420351   -6.757874    0.977281    0.002569   -0.001177   -0.000888
H    -2.569184   -6.199406    2.234734    0.003358   -0.006334    0.002122
H    -3.180387   -7.003058    0.746019    0.002525   -0.001568   -0.000119
39
* Frequency(6)  -44.8600
C    -7.216131    3.478606   -0.287260    0.006259   -0.002574   -0.134169
C    -5.950320    4.103255   -0.243265    0.006509   -0.003761   -0.115493
C    -4.775453    3.378239   -0.159056    0.002310   -0.002067   -0.043078
C    -4.798213    1.969093   -0.118368    0.000087   -0.001299   -0.008950
C    -3.595469    1.197834   -0.028279   -0.001320   -0.000503    0.014596
C    -3.625543   -0.167369    0.006298   -0.001661   -0.000422    0.020362
C    -4.861518   -0.897799   -0.052825   -0.001223   -0.000256    0.012616
C    -4.906354   -2.326974   -0.026400   -0.001335   -0.000241    0.015630
C    -6.169357   -2.955023   -0.071744   -0.001467   -0.000100    0.019647
C    -7.350956   -2.230218   -0.123280   -0.001497    0.000182    0.023449
C    -7.337389   -0.823481   -0.155606   -0.000892   -0.000096    0.013078
C    -8.539905   -0.050681   -0.227148   -0.001464    0.000691    0.032969
C    -8.514246    1.314028   -0.268400   -0.000442   -0.000037    0.009637
C    -7.277290    2.048263   -0.242975    0.002513   -0.001255   -0.066961
C    -6.055843    1.291314   -0.163227    0.000566   -0.000911   -0.024827
C    -6.081751   -0.143755   -0.125538   -0.000593   -0.000329    0.000755
C    -8.432533    4.280778   -0.382657    0.013920   -0.006871   -0.291086
C    -3.678435   -3.123950    0.031747   -0.000928    0.000195    0.012863
C    -8.525149    5.637992   -0.356621   -0.016199    0.026801    0.482338
C    -3.589567   -4.380637    0.513717    0.000666   -0.000873    0.009808
C    -9.777135    6.311807   -0.468218   -0.007062    0.006112    0.131063
O    -2.430902   -5.069159    0.481500    0.000955   -0.000136    0.005933
C    -2.411582   -6.317185    1.147182    0.002426   -0.002451    0.001568
N   -10.789868    6.878642   -0.557656   -0.000500   -0.009379   -0.127475
H    -5.888231    5.192384   -0.283916    0.016035   -0.007666   -0.259750
H    -3.813414    3.896550   -0.127537    0.003603   -0.003019   -0.065315
H    -2.639928    1.727409    0.017924   -0.001958   -0.000157    0.023966
H    -2.685664   -0.713127    0.090758   -0.002812   -0.000284    0.034663
H    -6.219513   -4.045710   -0.100239   -0.002014   -0.000171    0.023439
H    -8.310172   -2.754108   -0.162486   -0.002135    0.000477    0.034679
H    -9.497601   -0.578491   -0.247517   -0.003797    0.002437    0.083358
H    -9.463304    1.847007   -0.316766   -0.004584    0.000411    0.085261
H    -9.378034    3.738459   -0.490981    0.043930   -0.042830   -1.156932
H    -2.747313   -2.687537   -0.337042   -0.002042    0.001242    0.011262
H    -7.645519    6.287628   -0.243146   -0.052898    0.075230    1.471303
H    -4.445724   -4.903645    0.959984    0.001846   -0.002487    0.010163
H    -1.420059   -6.758007    0.977180    0.002569   -0.001177   -0.000888
H    -2.568802   -6.200126    2.234975    0.003358   -0.006334    0.002122
H    -3.180100   -7.003236    0.746006    0.002525   -0.001568   -0.000119
39
* Frequency(6)  -44.8600
C    -7.215497    3.478345   -0.300855    0.006259   -0.002574   -0.134169
C    -5.949660    4.102874   -0.254968    0.006509   -0.003761   -0.115493
C    -4.775219    3.378030   -0.163422    0.002310   -0.002067   -0.043078
C    -4.798204    1.968961   -0.119275    0.000087   -0.001299   -0.008950
C    -3.595603    1.197783   -0.026800   -0.001320   -0.000503    0.014596
C    -3.625711   -0.167412    0.008361   -0.001661   -0.000422    0.020362
C    -4.861642   -0.897825   -0.051547   -0.001223   -0.000256    0.012616
C    -4.906489   -2.326998   -0.024816   -0.001335   -0.000241    0.015630
C    -6.169506   -2.955033   -0.069753   -0.001467   -0.000100    0.019647
C    -7.351108   -2.230199   -0.120904   -0.001497    0.000182    0.023449
C    -7.337480   -0.823491   -0.154281   -0.000892   -0.000096    0.013078
C    -8.540054   -0.050611   -0.223808   -0.001464    0.000691    0.032969
C    -8.514291    1.314024   -0.267424   -0.000442   -0.000037    0.009637
C    -7.277035    2.048136   -0.249760    0.002513   -0.001255   -0.066961
C    -6.055786    1.291222   -0.165742    0.000566   -0.000911   -0.024827
C    -6.081811   -0.143788   -0.125462   -0.000593   -0.000329    0.000755
C    -8.431123    4.280081   -0.412152    0.013920   -0.006871   -0.291086
C    -3.678529   -3.123930    0.033050   -0.000928    0.000195    0.012863
C    -8.526790    5.640708   -0.307746   -0.016199    0.026801    0.482338
C    -3.589499   -4.380726    0.514711    0.000666   -0.000873    0.009808
C    -9.777851    6.312426   -0.454937   -0.007062    0.006112    0.131063
O    -2.430805   -5.069173    0.482101    0.000955   -0.000136    0.005933
C    -2.411337   -6.317433    1.147341    0.002426   -0.002451    0.001568
N   -10.789918    6.877692   -0.570573   -0.000500   -0.009379   -0.127475
H    -5.886606    5.191607   -0.310236    0.016035   -0.007666   -0.259750
H    -3.813049    3.896244   -0.134155    0.003603   -0.003019   -0.065315
H    -2.640126    1.727394    0.020353   -0.001958   -0.000157    0.023966
H    -2.685948   -0.713156    0.094270   -0.002812   -0.000284    0.034663
H    -6.219717   -4.045727   -0.097864   -0.002014   -0.000171    0.023439
H    -8.310389   -2.754060   -0.158972   -0.002135    0.000477    0.034679
H    -9.497986   -0.578244   -0.239070   -0.003797    0.002437    0.083358
H    -9.463768    1.847049   -0.308126   -0.004584    0.000411    0.085261
H    -9.373583    3.734119   -0.608212    0.043930   -0.042830   -1.156932
H    -2.747520   -2.687411   -0.335901   -0.002042    0.001242    0.011262
H    -7.650879    6.295251   -0.094060   -0.052898    0.075230    1.471303
H    -4.445536   -4.903897    0.961014    0.001846   -0.002487    0.010163
H    -1.419799   -6.758126    0.977091    0.002569   -0.001177   -0.000888
H    -2.568462   -6.200767    2.235190    0.003358   -0.006334    0.002122
H    -3.179845   -7.003395    0.745993    0.002525   -0.001568   -0.000119
39
* Frequency(6)  -44.8600
C    -7.215008    3.478145   -0.311325    0.006259   -0.002574   -0.134169
C    -5.949152    4.102581   -0.263981    0.006509   -0.003761   -0.115493
C    -4.775039    3.377869   -0.166783    0.002310   -0.002067   -0.043078
C    -4.798197    1.968859   -0.119973    0.000087   -0.001299   -0.008950
C    -3.595706    1.197744   -0.025661   -0.001320   -0.000503    0.014596
C    -3.625841   -0.167445    0.009950   -0.001661   -0.000422    0.020362
C    -4.861737   -0.897845   -0.050562   -0.001223   -0.000256    0.012616
C    -4.906594   -2.327017   -0.023597   -0.001335   -0.000241    0.015630
C    -6.169620   -2.955041   -0.068220   -0.001467   -0.000100    0.019647
C    -7.351224   -2.230185   -0.119074   -0.001497    0.000182    0.023449
C    -7.337549   -0.823498   -0.153260   -0.000892   -0.000096    0.013078
C    -8.540168   -0.050557   -0.221235   -0.001464    0.000691    0.032969
C    -8.514325    1.314022   -0.266672   -0.000442   -0.000037    0.009637
C    -7.276839    2.048038   -0.254986    0.002513   -0.001255   -0.066961
C    -6.055741    1.291151   -0.167680    0.000566   -0.000911   -0.024827
C    -6.081857   -0.143814   -0.125403   -0.000593   -0.000329    0.000755
C    -8.430036    4.279545   -0.434867    0.013920   -0.006871   -0.291086
C    -3.678602   -3.123915    0.034054   -0.000928    0.000195    0.012863
C    -8.528055    5.642799   -0.270107   -0.016199    0.026801    0.482338
C    -3.589447   -4.380794    0.515477    0.000666   -0.000873    0.009808
C    -9.778402    6.312903   -0.444710   -0.007062    0.006112    0.131063
O    -2.430731   -5.069184    0.482564    0.000955   -0.000136    0.005933
C    -2.411147   -6.317625    1.147463    0.002426   -0.002451    0.001568
N   -10.789957    6.876960   -0.580520   -0.000500   -0.009379   -0.127475
H    -5.885355    5.191009   -0.330506    0.016035   -0.007666   -0.259750
H    -3.812768    3.896008   -0.139252    0.003603   -0.003019   -0.065315
H    -2.640279    1.727381    0.022223   -0.001958   -0.000157    0.023966
H    -2.686168   -0.713178    0.096975   -0.002812   -0.000284    0.034663
H    -6.219874   -4.045740   -0.096035   -0.002014   -0.000171    0.023439
H    -8.310555   -2.754023   -0.156266   -0.002135    0.000477    0.034679
H    -9.498282   -0.578054   -0.232565   -0.003797    0.002437    0.083358
H    -9.464126    1.847081   -0.301473   -0.004584    0.000411    0.085261
H    -9.370155    3.730777   -0.698492    0.043930   -0.042830   -1.156932
H    -2.747679   -2.687314   -0.335022   -0.002042    0.001242    0.011262
H    -7.655007    6.301121    0.020752   -0.052898    0.075230    1.471303
H    -4.445392   -4.904091    0.961807    0.001846   -0.002487    0.010163
H    -1.419599   -6.758218    0.977021    0.002569   -0.001177   -0.000888
H    -2.568200   -6.201262    2.235355    0.003358   -0.006334    0.002122
H    -3.179647   -7.003518    0.745984    0.002525   -0.001568   -0.000119
39
* Frequency(6)  -44.8600
C    -7.214719    3.478025   -0.317535    0.006259   -0.002574   -0.134169
C    -5.948851    4.102407   -0.269326    0.006509   -0.003761   -0.115493
C    -4.774932    3.377773   -0.168777    0.002310   -0.002067   -0.043078
C    -4.798193    1.968799   -0.120387    0.000087   -0.001299   -0.008950
C    -3.595767    1.197721   -0.024985   -0.001320   -0.000503    0.014596
C    -3.625918   -0.167465    0.010892   -0.001661   -0.000422    0.020362
C    -4.861794   -0.897857   -0.049978   -0.001223   -0.000256    0.012616
C    -4.906655   -2.327028   -0.022873   -0.001335   -0.000241    0.015630
C    -6.169688   -2.955046   -0.067311   -0.001467   -0.000100    0.019647
C    -7.351294   -2.230177   -0.117989   -0.001497    0.000182    0.023449
C    -7.337591   -0.823503   -0.152655   -0.000892   -0.000096    0.013078
C    -8.540236   -0.050525   -0.219709   -0.001464    0.000691    0.032969
C    -8.514346    1.314020   -0.266226   -0.000442   -0.000037    0.009637
C    -7.276722    2.047980   -0.258085    0.002513   -0.001255   -0.066961
C    -6.055715    1.291109   -0.168829    0.000566   -0.000911   -0.024827
C    -6.081884   -0.143829   -0.125368   -0.000593   -0.000329    0.000755
C    -8.429392    4.279227   -0.448339    0.013920   -0.006871   -0.291086
C    -3.678645   -3.123906    0.034649   -0.000928    0.000195    0.012863
C    -8.528804    5.644039   -0.247784   -0.016199    0.026801    0.482338
C    -3.589416   -4.380834    0.515931    0.000666   -0.000873    0.009808
C    -9.778729    6.313186   -0.438644   -0.007062    0.006112    0.131063
O    -2.430686   -5.069190    0.482839    0.000955   -0.000136    0.005933
C    -2.411035   -6.317738    1.147536    0.002426   -0.002451    0.001568
N   -10.789981    6.876526   -0.586420   -0.000500   -0.009379   -0.127475
H    -5.884612    5.190654   -0.342527    0.016035   -0.007666   -0.259750
H    -3.812601    3.895868   -0.142275    0.003603   -0.003019   -0.065315
H    -2.640370    1.727374    0.023332   -0.001958   -0.000157    0.023966
H    -2.686298   -0.713191    0.098579   -0.002812   -0.000284    0.034663
H    -6.219968   -4.045748   -0.094950   -0.002014   -0.000171    0.023439
H    -8.310654   -2.754001   -0.154661   -0.002135    0.000477    0.034679
H    -9.498458   -0.577941   -0.228707   -0.003797    0.002437    0.083358
H    -9.464338    1.847100   -0.297527   -0.004584    0.000411    0.085261
H    -9.368121    3.728795   -0.752037    0.043930   -0.042830   -1.156932
H    -2.747774   -2.687257   -0.334501   -0.002042    0.001242    0.011262
H    -7.657455    6.304603    0.088846   -0.052898    0.075230    1.471303
H    -4.445307   -4.904206    0.962277    0.001846   -0.002487    0.010163
H    -1.419480   -6.758273    0.976980    0.002569   -0.001177   -0.000888
H    -2.568044   -6.201555    2.235454    0.003358   -0.006334    0.002122
H    -3.179531   -7.003590    0.745979    0.002525   -0.001568   -0.000119
39
* Frequency(6)  -44.8600
C    -7.214659    3.478001   -0.318811    0.006259   -0.002574   -0.134169
C    -5.948789    4.102371   -0.270425    0.006509   -0.003761   -0.115493
C    -4.774910    3.377753   -0.169187    0.002310   -0.002067   -0.043078
C    -4.798192    1.968787   -0.120472    0.000087   -0.001299   -0.008950
C    -3.595780    1.197716   -0.024847   -0.001320   -0.000503    0.014596
C    -3.625933   -0.167469    0.011086   -0.001661   -0.000422    0.020362
C    -4.861805   -0.897859   -0.049858   -0.001223   -0.000256    0.012616
C    -4.906668   -2.327031   -0.022725   -0.001335   -0.000241    0.015630
C    -6.169702   -2.955047   -0.067124   -0.001467   -0.000100    0.019647
C    -7.351308   -2.230175   -0.117766   -0.001497    0.000182    0.023449
C    -7.337599   -0.823503   -0.152531   -0.000892   -0.000096    0.013078
C    -8.540250   -0.050519   -0.219395   -0.001464    0.000691    0.032969
C    -8.514350    1.314019   -0.266134   -0.000442   -0.000037    0.009637
C    -7.276699    2.047968   -0.258722    0.002513   -0.001255   -0.066961
C    -6.055710    1.291100   -0.169065    0.000566   -0.000911   -0.024827
C    -6.081890   -0.143832   -0.125361   -0.000593   -0.000329    0.000755
C    -8.429260    4.279162   -0.451108    0.013920   -0.006871   -0.291086
C    -3.678653   -3.123904    0.034771   -0.000928    0.000195    0.012863
C    -8.528958    5.644294   -0.243195   -0.016199    0.026801    0.482338
C    -3.589410   -4.380842    0.516024    0.000666   -0.000873    0.009808
C    -9.778796    6.313244   -0.437397   -0.007062    0.006112    0.131063
O    -2.430677   -5.069191    0.482895    0.000955   -0.000136    0.005933
C    -2.411012   -6.317761    1.147551    0.002426   -0.002451    0.001568
N   -10.789985    6.876437   -0.587633   -0.000500   -0.009379   -0.127475
H    -5.884460    5.190581   -0.344999    0.016035   -0.007666   -0.259750
H    -3.812567    3.895840   -0.142897    0.003603   -0.003019   -0.065315
H    -2.640389    1.727373    0.023560   -0.001958   -0.000157    0.023966
H    -2.686325   -0.713194    0.098909   -0.002812   -0.000284    0.034663
H    -6.219987   -4.045750   -0.094727   -0.002014   -0.000171    0.023439
H    -8.310674   -2.753996   -0.154331   -0.002135    0.000477    0.034679
H    -9.498494   -0.577918   -0.227914   -0.003797    0.002437    0.083358
H    -9.464382    1.847104   -0.296716   -0.004584    0.000411    0.085261
H    -9.367703    3.728387   -0.763044    0.043930   -0.042830   -1.156932
H    -2.747793   -2.687245   -0.334394   -0.002042    0.001242    0.011262
H    -7.657958    6.305319    0.102845   -0.052898    0.075230    1.471303
H    -4.445289   -4.904230    0.962374    0.001846   -0.002487    0.010163
H    -1.419455   -6.758284    0.976972    0.002569   -0.001177   -0.000888
H    -2.568013   -6.201615    2.235474    0.003358   -0.006334    0.002122
H    -3.179507   -7.003605    0.745977    0.002525   -0.001568   -0.000119
39
* Frequency(6)  -44.8600
C    -7.214836    3.478074   -0.315017    0.006259   -0.002574   -0.134169
C    -5.948973    4.102477   -0.267158    0.006509   -0.003761   -0.115493
C    -4.774975    3.377812   -0.167968    0.002310   -0.002067   -0.043078
C    -4.798195    1.968824   -0.120219    0.000087   -0.001299   -0.008950
C    -3.595742    1.197730   -0.025259   -0.001320   -0.000503    0.014596
C    -3.625886   -0.167457    0.010510   -0.001661   -0.000422    0.020362
C    -4.861771   -0.897852   -0.050215   -0.001223   -0.000256    0.012616
C    -4.906630   -2.327024   -0.023167   -0.001335   -0.000241    0.015630
C    -6.169661   -2.955044   -0.067680   -0.001467   -0.000100    0.019647
C    -7.351266   -2.230180   -0.118429   -0.001497    0.000182    0.023449
C    -7.337574   -0.823501   -0.152901   -0.000892   -0.000096    0.013078
C    -8.540208   -0.050538   -0.220328   -0.001464    0.000691    0.032969
C    -8.514337    1.314021   -0.266407   -0.000442   -0.000037    0.009637
C    -7.276770    2.048003   -0.256828    0.002513   -0.001255   -0.066961
C    -6.055726    1.291126   -0.168363    0.000566   -0.000911   -0.024827
C    -6.081873   -0.143823   -0.125382   -0.000593   -0.000329    0.000755
C    -8.429653    4.279356   -0.442875    0.013920   -0.006871   -0.291086
C    -3.678627   -3.123909    0.034408   -0.000928    0.000195    0.012863
C    -8.528500    5.643536   -0.256837   -0.016199    0.026801    0.482338
C    -3.589429   -4.380818    0.515746    0.000666   -0.000873    0.009808
C    -9.778596    6.313071   -0.441104   -0.007062    0.006112    0.131063
O    -2.430704   -5.069188    0.482727    0.000955   -0.000136    0.005933
C    -2.411081   -6.317692    1.147506    0.002426   -0.002451    0.001568
N   -10.789971    6.876702   -0.584027   -0.000500   -0.009379   -0.127475
H    -5.884913    5.190798   -0.337652    0.016035   -0.007666   -0.259750
H    -3.812669    3.895925   -0.141049    0.003603   -0.003019   -0.065315
H    -2.640333    1.727377    0.022882   -0.001958   -0.000157    0.023966
H    -2.686245   -0.713186    0.097928   -0.002812   -0.000284    0.034663
H    -6.219930   -4.045745   -0.095390   -0.002014   -0.000171    0.023439
H    -8.310614   -2.754010   -0.155312   -0.002135    0.000477    0.034679
H    -9.498387   -0.577987   -0.230272   -0.003797    0.002437    0.083358
H    -9.464252    1.847092   -0.299127   -0.004584    0.000411    0.085261
H    -9.368946    3.729599   -0.730322    0.043930   -0.042830   -1.156932
H    -2.747735   -2.687280   -0.334713   -0.002042    0.001242    0.011262
H    -7.656462    6.303191    0.061231   -0.052898    0.075230    1.471303
H    -4.445342   -4.904160    0.962086    0.001846   -0.002487    0.010163
H    -1.419528   -6.758251    0.976997    0.002569   -0.001177   -0.000888
H    -2.568108   -6.201436    2.235414    0.003358   -0.006334    0.002122
H    -3.179578   -7.003561    0.745981    0.002525   -0.001568   -0.000119
39
* Frequency(6)  -44.8600
C    -7.215231    3.478236   -0.306562    0.006259   -0.002574   -0.134169
C    -5.949384    4.102714   -0.259880    0.006509   -0.003761   -0.115493
C    -4.775121    3.377942   -0.165254    0.002310   -0.002067   -0.043078
C    -4.798200    1.968906   -0.119655    0.000087   -0.001299   -0.008950
C    -3.595659    1.197762   -0.026179   -0.001320   -0.000503    0.014596
C    -3.625782   -0.167430    0.009227   -0.001661   -0.000422    0.020362
C    -4.861694   -0.897836   -0.051010   -0.001223   -0.000256    0.012616
C    -4.906546   -2.327009   -0.024152   -0.001335   -0.000241    0.015630
C    -6.169568   -2.955037   -0.068918   -0.001467   -0.000100    0.019647
C    -7.351171   -2.230192   -0.119907   -0.001497    0.000182    0.023449
C    -7.337518   -0.823495   -0.153725   -0.000892   -0.000096    0.013078
C    -8.540116   -0.050582   -0.222405   -0.001464    0.000691    0.032969
C    -8.514309    1.314023   -0.267014   -0.000442   -0.000037    0.009637
C    -7.276928    2.048083   -0.252608    0.002513   -0.001255   -0.066961
C    -6.055762    1.291183   -0.166798    0.000566   -0.000911   -0.024827
C    -6.081836   -0.143802   -0.125429   -0.000593   -0.000329    0.000755
C    -8.430531    4.279789   -0.424532    0.013920   -0.006871   -0.291086
C    -3.678569   -3.123922    0.033597   -0.000928    0.000195    0.012863
C    -8.527479    5.641847   -0.287233   -0.016199    0.026801    0.482338
C    -3.589471   -4.380763    0.515128    0.000666   -0.000873    0.009808
C    -9.778151    6.312686   -0.449363   -0.007062    0.006112    0.131063
O    -2.430765   -5.069179    0.482353    0.000955   -0.000136    0.005933
C    -2.411233   -6.317538    1.147407    0.002426   -0.002451    0.001568
N   -10.789940    6.877293   -0.575994   -0.000500   -0.009379   -0.127475
H    -5.885924    5.191281   -0.321283    0.016035   -0.007666   -0.259750
H    -3.812896    3.896115   -0.136933    0.003603   -0.003019   -0.065315
H    -2.640210    1.727387    0.021372   -0.001958   -0.000157    0.023966
H    -2.686068   -0.713168    0.095744   -0.002812   -0.000284    0.034663
H    -6.219803   -4.045734   -0.096867   -0.002014   -0.000171    0.023439
H    -8.310480   -2.754040   -0.157497   -0.002135    0.000477    0.034679
H    -9.498147   -0.578141   -0.235525   -0.003797    0.002437    0.083358
H    -9.463963    1.847066   -0.304500   -0.004584    0.000411    0.085261
H    -9.371714    3.732298   -0.657415    0.043930   -0.042830   -1.156932
H    -2.747607   -2.687358   -0.335422   -0.002042    0.001242    0.011262
H    -7.653129    6.298450   -0.031487   -0.052898    0.075230    1.471303
H    -4.445458   -4.904003    0.961446    0.001846   -0.002487    0.010163
H    -1.419690   -6.758177    0.977053    0.002569   -0.001177   -0.000888
H    -2.568319   -6.201037    2.235280    0.003358   -0.006334    0.002122
H    -3.179737   -7.003462    0.745988    0.002525   -0.001568   -0.000119
39
* Frequency(6)  -44.8600
C    -7.215800    3.478470   -0.294363    0.006259   -0.002574   -0.134169
C    -5.949975    4.103056   -0.249379    0.006509   -0.003761   -0.115493
C    -4.775331    3.378130   -0.161337    0.002310   -0.002067   -0.043078
C    -4.798208    1.969024   -0.118841    0.000087   -0.001299   -0.008950
C    -3.595539    1.197808   -0.027506   -0.001320   -0.000503    0.014596
C    -3.625631   -0.167392    0.007376   -0.001661   -0.000422    0.020362
C    -4.861582   -0.897812   -0.052157   -0.001223   -0.000256    0.012616
C    -4.906425   -2.326987   -0.025573   -0.001335   -0.000241    0.015630
C    -6.169435   -2.955028   -0.070704   -0.001467   -0.000100    0.019647
C    -7.351035   -2.230208   -0.122039   -0.001497    0.000182    0.023449
C    -7.337437   -0.823486   -0.154914   -0.000892   -0.000096    0.013078
C    -8.539983   -0.050645   -0.225403   -0.001464    0.000691    0.032969
C    -8.514269    1.314026   -0.267890   -0.000442   -0.000037    0.009637
C    -7.277156    2.048197   -0.246520    0.002513   -0.001255   -0.066961
C    -6.055813    1.291266   -0.164541    0.000566   -0.000911   -0.024827
C    -6.081782   -0.143773   -0.125498   -0.000593   -0.000329    0.000755
C    -8.431796    4.280414   -0.398066    0.013920   -0.006871   -0.291086
C    -3.678484   -3.123939    0.032428   -0.000928    0.000195    0.012863
C    -8.526007    5.639411   -0.331088   -0.016199    0.026801    0.482338
C    -3.589531   -4.380683    0.514237    0.000666   -0.000873    0.009808
C    -9.777509    6.312130   -0.461280   -0.007062    0.006112    0.131063
O    -2.430851   -5.069167    0.481814    0.000955   -0.000136    0.005933
C    -2.411454   -6.317315    1.147265    0.002426   -0.002451    0.001568
N   -10.789894    6.878146   -0.564404   -0.000500   -0.009379   -0.127475
H    -5.887382    5.191978   -0.297666    0.016035   -0.007666   -0.259750
H    -3.813224    3.896390   -0.130995    0.003603   -0.003019   -0.065315
H    -2.640032    1.727401    0.019193   -0.001958   -0.000157    0.023966
H    -2.685812   -0.713142    0.092592   -0.002812   -0.000284    0.034663
H    -6.219620   -4.045719   -0.098998   -0.002014   -0.000171    0.023439
H    -8.310285   -2.754083   -0.160650   -0.002135    0.000477    0.034679
H    -9.497802   -0.578362   -0.243104   -0.003797    0.002437    0.083358
H    -9.463547    1.847029   -0.312252   -0.004584    0.000411    0.085261
H    -9.375708    3.736192   -0.552225    0.043930   -0.042830   -1.156932
H    -2.747421   -2.687471   -0.336446   -0.002042    0.001242    0.011262
H    -7.648319    6.291610   -0.165260   -0.052898    0.075230    1.471303
H    -4.445626   -4.903777    0.960522    0.001846   -0.002487    0.010163
H    -1.419923   -6.758070    0.977133    0.002569   -0.001177   -0.000888
H    -2.568624   -6.200461    2.235087    0.003358   -0.006334    0.002122
H    -3.179967   -7.003319    0.745999    0.002525   -0.001568   -0.000119
39
* Frequency(6)  -44.8600
C    -7.216482    3.478751   -0.279742    0.006259   -0.002574   -0.134169
C    -5.950685    4.103466   -0.236794    0.006509   -0.003761   -0.115493
C    -4.775583    3.378355   -0.156642    0.002310   -0.002067   -0.043078
C    -4.798218    1.969165   -0.117866    0.000087   -0.001299   -0.008950
C    -3.595395    1.197862   -0.029097   -0.001320   -0.000503    0.014596
C    -3.625450   -0.167346    0.005157   -0.001661   -0.000422    0.020362
C    -4.861449   -0.897784   -0.053532   -0.001223   -0.000256    0.012616
C    -4.906279   -2.326961   -0.027276   -0.001335   -0.000241    0.015630
C    -6.169275   -2.955017   -0.072845   -0.001467   -0.000100    0.019647
C    -7.350872   -2.230228   -0.124594   -0.001497    0.000182    0.023449
C    -7.337340   -0.823476   -0.156339   -0.000892   -0.000096    0.013078
C    -8.539823   -0.050720   -0.228996   -0.001464    0.000691    0.032969
C    -8.514221    1.314030   -0.268941   -0.000442   -0.000037    0.009637
C    -7.277430    2.048333   -0.239223    0.002513   -0.001255   -0.066961
C    -6.055875    1.291365   -0.161835    0.000566   -0.000911   -0.024827
C    -6.081717   -0.143737   -0.125580   -0.000593   -0.000329    0.000755
C    -8.433313    4.281163   -0.366345    0.013920   -0.006871   -0.291086
C    -3.678383   -3.123961    0.031026   -0.000928    0.000195    0.012863
C    -8.524241    5.636490   -0.383650   -0.016199    0.026801    0.482338
C    -3.589604   -4.380588    0.513168    0.000666   -0.000873    0.009808
C    -9.776739    6.311464   -0.475562   -0.007062    0.006112    0.131063
O    -2.430955   -5.069152    0.481167    0.000955   -0.000136    0.005933
C    -2.411718   -6.317048    1.147094    0.002426   -0.002451    0.001568
N   -10.789840    6.879168   -0.550513   -0.000500   -0.009379   -0.127475
H    -5.889129    5.192813   -0.269360    0.016035   -0.007666   -0.259750
H    -3.813616    3.896719   -0.123877    0.003603   -0.003019   -0.065315
H    -2.639818    1.727418    0.016581   -0.001958   -0.000157    0.023966
H    -2.685506   -0.713111    0.088815   -0.002812   -0.000284    0.034663
H    -6.219400   -4.045700   -0.101552   -0.002014   -0.000171    0.023439
H    -8.310053   -2.754135   -0.164430   -0.002135    0.000477    0.034679
H    -9.497388   -0.578628   -0.252188   -0.003797    0.002437    0.083358
H    -9.463047    1.846984   -0.321543   -0.004584    0.000411    0.085261
H    -9.380496    3.740859   -0.426150    0.043930   -0.042830   -1.156932
H    -2.747199   -2.687607   -0.337673   -0.002042    0.001242    0.011262
H    -7.642555    6.283412   -0.325593   -0.052898    0.075230    1.471303
H    -4.445827   -4.903506    0.959414    0.001846   -0.002487    0.010163
H    -1.420203   -6.757941    0.977230    0.002569   -0.001177   -0.000888
H    -2.568990   -6.199771    2.234856    0.003358   -0.006334    0.002122
H    -3.180242   -7.003148    0.746012    0.002525   -0.001568   -0.000119
39
* Frequency(6)  -44.8600
C    -7.217203    3.479047   -0.264283    0.006259   -0.002574   -0.134169
C    -5.951435    4.103899   -0.223487    0.006509   -0.003761   -0.115493
C    -4.775849    3.378594   -0.151679    0.002310   -0.002067   -0.043078
C    -4.798228    1.969315   -0.116835    0.000087   -0.001299   -0.008950
C    -3.595243    1.197920   -0.030779   -0.001320   -0.000503    0.014596