Start Job  on nano05

                                 *****************
                                 * O   R   C   A *
                                 *****************

                                            #,                                       
                                            ###                                      
                                            ####                                     
                                            #####                                    
                                            ######                                   
                                           ########,                                 
                                     ,,################,,,,,                         
                               ,,#################################,,                 
                          ,,##########################################,,             
                       ,#########################################, ''#####,          
                    ,#############################################,,   '####,        
                  ,##################################################,,,,####,       
                ,###########''''           ''''###############################       
              ,#####''   ,,,,##########,,,,          '''####'''          '####       
            ,##' ,,,,###########################,,,                        '##       
           ' ,,###''''                  '''############,,,                           
         ,,##''                                '''############,,,,        ,,,,,,###''
      ,#''                                            '''#######################'''  
     '                                                          ''''####''''         
             ,#######,   #######,   ,#######,      ##                                
            ,#'     '#,  ##    ##  ,#'     '#,    #''#        ######   ,####,        
            ##       ##  ##   ,#'  ##            #'  '#       #        #'  '#        
            ##       ##  #######   ##           ,######,      #####,   #    #        
            '#,     ,#'  ##    ##  '#,     ,#' ,#      #,         ##   #,  ,#        
             '#######'   ##     ##  '#######'  #'      '#     #####' # '####'        



                  #######################################################
                  #                        -***-                        #
                  #          Department of theory and spectroscopy      #
                  #    Directorship and core code : Frank Neese         #
                  #        Max Planck Institute fuer Kohlenforschung    #
                  #                Kaiser Wilhelm Platz 1               #
                  #                 D-45470 Muelheim/Ruhr               #
                  #                      Germany                        #
                  #                                                     #
                  #                  All rights reserved                #
                  #                        -***-                        #
                  #######################################################


                         Program Version 5.0.4 -  RELEASE  -


 With contributions from (in alphabetic order):
   Daniel Aravena         : Magnetic Suceptibility
   Michael Atanasov       : Ab Initio Ligand Field Theory (pilot matlab implementation)
   Alexander A. Auer      : GIAO ZORA, VPT2 properties, NMR spectrum
   Ute Becker             : Parallelization
   Giovanni Bistoni       : ED, misc. LED, open-shell LED, HFLD
   Martin Brehm           : Molecular dynamics
   Dmytro Bykov           : SCF Hessian
   Vijay G. Chilkuri      : MRCI spin determinant printing, contributions to CSF-ICE
   Dipayan Datta          : RHF DLPNO-CCSD density
   Achintya Kumar Dutta   : EOM-CC, STEOM-CC
   Dmitry Ganyushin       : Spin-Orbit,Spin-Spin,Magnetic field MRCI
   Miquel Garcia          : C-PCM and meta-GGA Hessian, CC/C-PCM, Gaussian charge scheme
   Yang Guo               : DLPNO-NEVPT2, F12-NEVPT2, CIM, IAO-localization
   Andreas Hansen         : Spin unrestricted coupled pair/coupled cluster methods
   Benjamin Helmich-Paris : MC-RPA, TRAH-SCF, COSX integrals
   Lee Huntington         : MR-EOM, pCC
   Robert Izsak           : Overlap fitted RIJCOSX, COSX-SCS-MP3, EOM
   Marcus Kettner         : VPT2
   Christian Kollmar      : KDIIS, OOCD, Brueckner-CCSD(T), CCSD density, CASPT2, CASPT2-K
   Simone Kossmann        : Meta GGA functionals, TD-DFT gradient, OOMP2, MP2 Hessian
   Martin Krupicka        : Initial AUTO-CI
   Lucas Lang             : DCDCAS
   Marvin Lechner         : AUTO-CI (C++ implementation), FIC-MRCC
   Dagmar Lenk            : GEPOL surface, SMD
   Dimitrios Liakos       : Extrapolation schemes; Compound Job, initial MDCI parallelization
   Dimitrios Manganas     : Further ROCIS development; embedding schemes
   Dimitrios Pantazis     : SARC Basis sets
   Anastasios Papadopoulos: AUTO-CI, single reference methods and gradients
   Taras Petrenko         : DFT Hessian,TD-DFT gradient, ASA, ECA, R-Raman, ABS, FL, XAS/XES, NRVS
   Peter Pinski           : DLPNO-MP2, DLPNO-MP2 Gradient
   Christoph Reimann      : Effective Core Potentials
   Marius Retegan         : Local ZFS, SOC
   Christoph Riplinger    : Optimizer, TS searches, QM/MM, DLPNO-CCSD(T), (RO)-DLPNO pert. Triples
   Tobias Risthaus        : Range-separated hybrids, TD-DFT gradient, RPA, STAB
   Michael Roemelt        : Original ROCIS implementation
   Masaaki Saitow         : Open-shell DLPNO-CCSD energy and density
   Barbara Sandhoefer     : DKH picture change effects
   Avijit Sen             : IP-ROCIS
   Kantharuban Sivalingam : CASSCF convergence, NEVPT2, FIC-MRCI
   Bernardo de Souza      : ESD, SOC TD-DFT
   Georgi Stoychev        : AutoAux, RI-MP2 NMR, DLPNO-MP2 response
   Willem Van den Heuvel  : Paramagnetic NMR
   Boris Wezisla          : Elementary symmetry handling
   Frank Wennmohs         : Technical directorship


 We gratefully acknowledge several colleagues who have allowed us to
 interface, adapt or use parts of their codes:
   Stefan Grimme, W. Hujo, H. Kruse, P. Pracht,  : VdW corrections, initial TS optimization,
                  C. Bannwarth, S. Ehlert          DFT functionals, gCP, sTDA/sTD-DF
   Ed Valeev, F. Pavosevic, A. Kumar             : LibInt (2-el integral package), F12 methods
   Garnet Chan, S. Sharma, J. Yang, R. Olivares  : DMRG
   Ulf Ekstrom                                   : XCFun DFT Library
   Mihaly Kallay                                 : mrcc  (arbitrary order and MRCC methods)
   Jiri Pittner, Ondrej Demel                    : Mk-CCSD
   Frank Weinhold                                : gennbo (NPA and NBO analysis)
   Christopher J. Cramer and Donald G. Truhlar   : smd solvation model
   Lars Goerigk                                  : TD-DFT with DH, B97 family of functionals
   V. Asgeirsson, H. Jonsson                     : NEB implementation
   FAccTs GmbH                                   : IRC, NEB, NEB-TS, DLPNO-Multilevel, CI-OPT
                                                   MM, QMMM, 2- and 3-layer-ONIOM, Crystal-QMMM,
                                                   LR-CPCM, SF, NACMEs, symmetry and pop. for TD-DFT,
                                                   nearIR, NL-DFT gradient (VV10), updates on ESD,
                                                   ML-optimized integration grids
   S Lehtola, MJT Oliveira, MAL Marques          : LibXC Library
   Liviu Ungur et al                             : ANISO software


 Your calculation uses the libint2 library for the computation of 2-el integrals
 For citations please refer to: http://libint.valeyev.net

 Your ORCA version has been built with support for libXC version: 5.1.0
 For citations please refer to: https://tddft.org/programs/libxc/

 This ORCA versions uses:
   CBLAS   interface :  Fast vector & matrix operations
   LAPACKE interface :  Fast linear algebra routines
   SCALAPACK package :  Parallel linear algebra routines
   Shared memory     :  Shared parallel matrices
   BLAS/LAPACK       :  OpenBLAS 0.3.15  USE64BITINT DYNAMIC_ARCH NO_AFFINITY Zen SINGLE_THREADED
        Core in use  :  Zen
   Copyright (c) 2011-2014, The OpenBLAS Project


================================================================================

----- Orbital basis set information -----
Your calculation utilizes the basis: def2-SVP
   F. Weigend and R. Ahlrichs, Phys. Chem. Chem. Phys. 7, 3297 (2005).

----- AuxJ basis set information -----
Your calculation utilizes the auxiliary basis: def2/J
   F. Weigend, Phys. Chem. Chem. Phys. 8, 1057 (2006).

================================================================================
                                        WARNINGS
                       Please study these warnings very carefully!
================================================================================


WARNING: Geometry Optimization
  ===> : Switching off AutoStart
         For restart on a previous wavefunction, please use MOREAD

INFO   : the flag for use of the SHARK integral package has been found!

================================================================================
                                       INPUT FILE
================================================================================
NAME = NC_OMe_3.inp
|  1> ! B3LYP def2-SVP Opt PAL8 FREQ defgrid3 slowconv VeryTightSCF
|  2> *xyz 0 1
|  3>  C        -7.218676        3.479653       -0.232700
|  4>  C        -5.952967        4.104784       -0.196300
|  5>  C        -4.776393        3.379080       -0.141538
|  6>  C        -4.798248        1.969621       -0.114728
|  7>  C        -3.594932        1.198039       -0.034215
|  8>  C        -3.624868       -0.167198       -0.001982
|  9>  C        -4.861020       -0.897695       -0.057955
| 10>  C        -4.905811       -2.326876       -0.032756
| 11>  C        -6.168761       -2.954982       -0.079734
| 12>  C        -7.350347       -2.230292       -0.132815
| 13>  C        -7.337027       -0.823442       -0.160924
| 14>  C        -8.539310       -0.050962       -0.240555
| 15>  C        -8.514066        1.314043       -0.272320
| 16>  C        -7.278311        2.048773       -0.215745
| 17>  C        -6.056073        1.291685       -0.153130
| 18>  C        -6.081510       -0.143622       -0.125845
| 19>  C        -8.438194        4.283572       -0.264286
| 20>  C        -3.678058       -3.124029        0.026516
| 21>  C        -8.518562        5.627093       -0.552765
| 22>  C        -3.589837       -4.380282        0.509729
| 23>  C        -9.774263        6.309321       -0.521515
| 24>  O        -2.431290       -5.069104        0.479087
| 25>  C        -2.412569       -6.316188        1.146544
| 26>  N       -10.789664        6.882456       -0.505818
| 27>  H        -5.894751        5.195501       -0.178288
| 28>  H        -3.814880        3.897777       -0.100976
| 29>  H        -2.639132        1.727473        0.008178
| 30>  H        -2.684520       -0.713012        0.076662
| 31>  H        -6.218694       -4.045640       -0.109770
| 32>  H        -8.309304       -2.754302       -0.176589
| 33>  H        -9.496057       -0.579482       -0.281414
| 34>  H        -9.461440        1.846840       -0.351437
| 35>  H        -9.395898        3.755876       -0.020511
| 36>  H        -2.746483       -2.688042       -0.341622
| 37>  H        -7.624008        6.257036       -0.841456
| 38>  H        -4.446474       -4.902633        0.955851
| 39>  H        -1.421104       -6.757529        0.977542
| 40>  H        -2.570168       -6.197550        2.234112
| 41>  H        -3.181127       -7.002598        0.746054
| 42> *
| 43> 
| 44>                          ****END OF INPUT****
================================================================================

                       *****************************
                       * Geometry Optimization Run *
                       *****************************

Geometry optimization settings:
Update method            Update   .... BFGS
Choice of coordinates    CoordSys .... Z-matrix Internals
Initial Hessian          InHess   .... Almoef's Model

Convergence Tolerances:
Energy Change            TolE     ....  5.0000e-06 Eh
Max. Gradient            TolMAXG  ....  3.0000e-04 Eh/bohr
RMS Gradient             TolRMSG  ....  1.0000e-04 Eh/bohr
Max. Displacement        TolMAXD  ....  4.0000e-03 bohr
RMS Displacement         TolRMSD  ....  2.0000e-03 bohr
Strict Convergence                ....  False
------------------------------------------------------------------------------
                        ORCA OPTIMIZATION COORDINATE SETUP
------------------------------------------------------------------------------

The optimization will be done in new redundant internal coordinates
Making redundant internal coordinates   ...  (new redundants) done
Evaluating the initial hessian          ...  (Almloef) done
Evaluating the coordinates              ...  done
Calculating the B-matrix                .... done
Calculating the G-matrix                .... done
Diagonalizing the G-matrix              .... done
Small eigenvalue found = 3.302e-03
Small eigenvalue found = 8.444e-03
Small eigenvalue found = 9.383e-03
Small eigenvalue found = 2.384e-02
The first mode is                       ....   97
The number of degrees of freedom        ....  111

    -----------------------------------------------------------------
                    Redundant Internal Coordinates


    -----------------------------------------------------------------
         Definition                    Initial Value    Approx d2E/dq
    -----------------------------------------------------------------
      1. B(C   1,C   0)                  1.4121         0.575996   
      2. B(C   2,C   1)                  1.3835         0.639981   
      3. B(C   3,C   2)                  1.4099         0.580786   
      4. B(C   4,C   3)                  1.4317         0.536037   
      5. B(C   5,C   4)                  1.3659         0.682521   
      6. B(C   6,C   5)                  1.4370         0.525811   
      7. B(C   7,C   6)                  1.4301         0.539205   
      8. B(C   8,C   7)                  1.4113         0.577772   
      9. B(C   9,C   8)                  1.3871         0.631411   
     10. B(C  10,C   9)                  1.4072         0.586553   
     11. B(C  11,C  10)                  1.4313         0.536890   
     12. B(C  12,C  11)                  1.3656         0.683368   
     13. B(C  13,C  12)                  1.4388         0.522271   
     14. B(C  13,C   0)                  1.4322         0.535026   
     15. B(C  14,C   3)                  1.4294         0.540595   
     16. B(C  14,C  13)                  1.4391         0.521705   
     17. B(C  15,C  14)                  1.4358         0.528057   
     18. B(C  15,C  10)                  1.4282         0.543024   
     19. B(C  15,C   6)                  1.4363         0.527157   
     20. B(C  16,C   0)                  1.4610         0.481360   
     21. B(C  17,C   7)                  1.4650         0.474260   
     22. B(C  18,C  16)                  1.3765         0.656585   
     23. B(C  19,C  17)                  1.3489         0.726707   
     24. B(C  20,C  18)                  1.4294         0.540594   
     25. B(O  21,C  19)                  1.3482         0.652474   
     26. B(C  22,O  21)                  1.4146         0.511260   
     27. B(N  23,C  20)                  1.1661         1.273818   
     28. B(H  24,C   1)                  1.0924         0.356915   
     29. B(H  25,C   2)                  1.0933         0.355824   
     30. B(H  26,C   4)                  1.0935         0.355554   
     31. B(H  27,C   5)                  1.0901         0.359947   
     32. B(H  28,C   8)                  1.0922         0.357184   
     33. B(H  29,C   9)                  1.0937         0.355285   
     34. B(H  30,C  11)                  1.0938         0.355126   
     35. B(H  31,C  12)                  1.0898         0.360373   
     36. B(H  32,C  16)                  1.1203         0.322160   
     37. B(H  33,C  17)                  1.0924         0.356876   
     38. B(H  34,C  18)                  1.1315         0.309128   
     39. B(H  35,C  19)                  1.0980         0.349613   
     40. B(H  36,C  22)                  1.0983         0.349237   
     41. B(H  37,C  22)                  1.1053         0.340402   
     42. B(H  38,C  22)                  1.1055         0.340111   
     43. A(C   1,C   0,C  13)          118.6387         0.417228   
     44. A(C   1,C   0,C  16)          120.3401         0.409469   
     45. A(C  13,C   0,C  16)          121.0134         0.404162   
     46. A(C   2,C   1,H  24)          118.5395         0.354277   
     47. A(C   0,C   1,H  24)          119.3527         0.348027   
     48. A(C   0,C   1,C   2)          122.0782         0.430809   
     49. A(C   1,C   2,C   3)          120.7950         0.431450   
     50. A(C   3,C   2,H  25)          119.1592         0.348333   
     51. A(C   1,C   2,H  25)          120.0374         0.354093   
     52. A(C   2,C   3,C  14)          119.1610         0.418616   
     53. A(C   4,C   3,C  14)          119.0452         0.412688   
     54. A(C   2,C   3,C   4)          121.7897         0.417985   
     55. A(C   3,C   4,H  26)          118.4185         0.343625   
     56. A(C   5,C   4,H  26)          120.1439         0.357936   
     57. A(C   3,C   4,C   5)          121.4364         0.430226   
     58. A(C   6,C   5,H  27)          119.3633         0.343223   
     59. A(C   4,C   5,C   6)          121.7380         0.428742   
     60. A(C   4,C   5,H  27)          118.8967         0.358685   
     61. A(C   5,C   6,C   7)          122.2961         0.411092   
     62. A(C   7,C   6,C  15)          119.9276         0.411279   
     63. A(C   5,C   6,C  15)          117.7724         0.409449   
     64. A(C   6,C   7,C   8)          118.1778         0.418036   
     65. A(C   8,C   7,C  17)          120.6058         0.408616   
     66. A(C   6,C   7,C  17)          121.2137         0.403657   
     67. A(C   9,C   8,H  28)          118.7964         0.353513   
     68. A(C   7,C   8,H  28)          119.0943         0.348251   
     69. A(C   7,C   8,C   9)          122.0757         0.430005   
     70. A(C  10,C   9,H  29)          119.1118         0.348824   
     71. A(C   8,C   9,H  29)          119.8754         0.353194   
     72. A(C   8,C   9,C  10)          120.9982         0.431171   
     73. A(C  11,C  10,C  15)          118.8758         0.413133   
     74. A(C   9,C  10,C  15)          118.9285         0.419689   
     75. A(C   9,C  10,C  11)          122.1909         0.418840   
     76. A(C  12,C  11,H  30)          119.8869         0.357938   
     77. A(C  10,C  11,C  12)          121.6845         0.430445   
     78. A(C  10,C  11,H  30)          118.4278         0.343648   
     79. A(C  11,C  12,H  31)          118.3138         0.358833   
     80. A(C  11,C  12,C  13)          121.6948         0.428318   
     81. A(C  13,C  12,H  31)          119.9892         0.342903   
     82. A(C   0,C  13,C  12)          123.0572         0.410034   
     83. A(C  12,C  13,C  14)          117.5500         0.408208   
     84. A(C   0,C  13,C  14)          119.3897         0.409956   
     85. A(C  13,C  14,C  15)          120.7766         0.409005   
     86. A(C   3,C  14,C  15)          119.2879         0.411591   
     87. A(C   3,C  14,C  13)          119.9354         0.410709   
     88. A(C  10,C  15,C  14)          119.4031         0.411919   
     89. A(C   6,C  15,C  14)          120.7100         0.409759   
     90. A(C   6,C  15,C  10)          119.8864         0.411794   
     91. A(C  18,C  16,H  32)          117.0931         0.349703   
     92. A(C   0,C  16,H  32)          116.7229         0.332014   
     93. A(C   0,C  16,C  18)          126.1812         0.419110   
     94. A(C  19,C  17,H  33)          115.8895         0.362011   
     95. A(C   7,C  17,H  33)          118.9365         0.336873   
     96. A(C   7,C  17,C  19)          125.1739         0.425645   
     97. A(C  20,C  18,H  34)          115.7445         0.336161   
     98. A(C  16,C  18,H  34)          123.4141         0.347278   
     99. A(C  16,C  18,C  20)          120.8344         0.427896   
    100. A(O  21,C  19,H  35)          115.8863         0.352014   
    101. A(C  17,C  19,H  35)          122.5183         0.360743   
    102. A(C  17,C  19,O  21)          121.5942         0.447874   
    103. L(C  18,C  20,N  23,C  16, 2) 180.4838         0.479500   
    104. L(C  18,C  20,N  23,C  16, 1) 181.0185         0.479500   
    105. A(C  19,O  21,C  22)          116.8122         0.417691   
    106. A(H  37,C  22,H  38)          108.9026         0.285726   
    107. A(H  36,C  22,H  38)          108.8029         0.286871   
    108. A(O  21,C  22,H  38)          111.5450         0.336341   
    109. A(H  36,C  22,H  37)          108.8589         0.286909   
    110. A(O  21,C  22,H  37)          111.5770         0.336389   
    111. A(O  21,C  22,H  36)          107.0729         0.337828   
    112. D(H  24,C   1,C   0,C  16)      0.8244         0.022779   
    113. D(H  24,C   1,C   0,C  13)   -178.1666         0.022779   
    114. D(C   2,C   1,C   0,C  16)    178.8193         0.022779   
    115. D(C   2,C   1,C   0,C  13)     -0.1717         0.022779   
    116. D(H  25,C   2,C   1,C   0)   -179.1766         0.028457   
    117. D(C   3,C   2,C   1,H  24)    177.7722         0.028457   
    118. D(C   3,C   2,C   1,C   0)     -0.2384         0.028457   
    119. D(H  25,C   2,C   1,H  24)     -1.1661         0.028457   
    120. D(C  14,C   3,C   2,H  25)    179.3276         0.023177   
    121. D(C  14,C   3,C   2,C   1)      0.3801         0.023177   
    122. D(C   4,C   3,C   2,H  25)      0.0734         0.023177   
    123. D(C   4,C   3,C   2,C   1)   -178.8741         0.023177   
    124. D(H  26,C   4,C   3,C   2)      0.0672         0.019625   
    125. D(C   5,C   4,C   3,C   2)    179.6692         0.019625   
    126. D(C   5,C   4,C   3,C  14)      0.4142         0.019625   
    127. D(H  26,C   4,C   3,C  14)   -179.1879         0.019625   
    128. D(H  27,C   5,C   4,H  26)      0.6227         0.032673   
    129. D(C   6,C   5,C   4,C   3)      0.5116         0.032673   
    130. D(C   6,C   5,C   4,H  26)   -179.8931         0.032673   
    131. D(H  27,C   5,C   4,C   3)   -178.9727         0.032673   
    132. D(C  15,C   6,C   5,H  27)    178.3954         0.018864   
    133. D(C   7,C   6,C   5,H  27)     -0.8840         0.018864   
    134. D(C   7,C   6,C   5,C   4)    179.6341         0.018864   
    135. D(C  15,C   6,C   5,C   4)     -1.0865         0.018864   
    136. D(C  17,C   7,C   6,C  15)    179.5544         0.019864   
    137. D(C  17,C   7,C   6,C   5)     -1.1813         0.019864   
    138. D(C   8,C   7,C   6,C  15)      0.1608         0.019864   
    139. D(C   8,C   7,C   6,C   5)    179.4252         0.019864   
    140. D(H  28,C   8,C   7,C   6)    177.0890         0.022927   
    141. D(C   9,C   8,C   7,C  17)    179.8270         0.022927   
    142. D(C   9,C   8,C   7,C   6)     -0.7756         0.022927   
    143. D(H  28,C   8,C   7,C  17)     -2.3084         0.022927   
    144. D(H  29,C   9,C   8,H  28)      1.6204         0.027651   
    145. D(H  29,C   9,C   8,C   7)    179.4910         0.027651   
    146. D(C  10,C   9,C   8,H  28)   -176.9754         0.027651   
    147. D(C  10,C   9,C   8,C   7)      0.8953         0.027651   
    148. D(C  15,C  10,C   9,H  29)   -178.9769         0.023662   
    149. D(C  15,C  10,C   9,C   8)     -0.3706         0.023662   
    150. D(C  11,C  10,C   9,H  29)      0.2163         0.023662   
    151. D(C  11,C  10,C   9,C   8)    178.8226         0.023662   
    152. D(H  30,C  11,C  10,C  15)    179.1396         0.019689   
    153. D(H  30,C  11,C  10,C   9)     -0.0539         0.019689   
    154. D(C  12,C  11,C  10,C  15)     -0.5531         0.019689   
    155. D(C  12,C  11,C  10,C   9)   -179.7467         0.019689   
    156. D(H  31,C  12,C  11,H  30)     -0.7740         0.032761   
    157. D(H  31,C  12,C  11,C  10)    178.9143         0.032761   
    158. D(C  13,C  12,C  11,H  30)    179.7633         0.032761   
    159. D(C  13,C  12,C  11,C  10)     -0.5483         0.032761   
    160. D(C  14,C  13,C  12,H  31)   -178.1307         0.018606   
    161. D(C   0,C  13,C  12,H  31)      1.2293         0.018606   
    162. D(C   0,C  13,C  12,C  11)   -179.3168         0.018606   
    163. D(C  14,C  13,C   0,C  16)   -178.5576         0.019549   
    164. D(C  14,C  13,C   0,C   1)      0.4264         0.019549   
    165. D(C  14,C  13,C  12,C  11)      1.3231         0.018606   
    166. D(C  12,C  13,C   0,C  16)      2.0936         0.019549   
    167. D(C  12,C  13,C   0,C   1)   -178.9225         0.019549   
    168. D(C   3,C  14,C  13,C  12)    179.0992         0.018564   
    169. D(C   3,C  14,C  13,C   0)     -0.2852         0.018564   
    170. D(C  15,C  14,C   3,C   4)     -0.7199         0.019970   
    171. D(C  15,C  14,C   3,C   2)   -179.9948         0.019970   
    172. D(C  13,C  14,C   3,C   4)    179.1586         0.019970   
    173. D(C  15,C  14,C  13,C   0)    179.5914         0.018564   
    174. D(C  13,C  14,C   3,C   2)     -0.1163         0.019970   
    175. D(C  15,C  14,C  13,C  12)     -1.0242         0.018564   
    176. D(C  10,C  15,C  14,C  13)     -0.0242         0.019030   
    177. D(C   6,C  15,C  14,C  13)   -179.7496         0.019030   
    178. D(C   6,C  15,C  14,C   3)      0.1278         0.019030   
    179. D(C  14,C  15,C  10,C  11)      0.8224         0.020155   
    180. D(C  14,C  15,C  10,C   9)   -179.9574         0.020155   
    181. D(C   6,C  15,C  10,C  11)   -179.4499         0.020155   
    182. D(C   6,C  15,C  10,C   9)     -0.2297         0.020155   
    183. D(C  14,C  15,C   6,C   7)   -179.9481         0.018963   
    184. D(C  14,C  15,C   6,C   5)      0.7547         0.018963   
    185. D(C  10,C  15,C  14,C   3)    179.8532         0.019030   
    186. D(C  10,C  15,C   6,C   7)      0.3279         0.018963   
    187. D(C  10,C  15,C   6,C   5)   -178.9693         0.018963   
    188. D(H  32,C  16,C   0,C  13)     14.7008         0.015776   
    189. D(H  32,C  16,C   0,C   1)   -164.2659         0.015776   
    190. D(C  18,C  16,C   0,C  13)   -165.9303         0.015776   
    191. D(C  18,C  16,C   0,C   1)     15.1029         0.015776   
    192. D(H  33,C  17,C   7,C   8)    155.0905         0.015314   
    193. D(H  33,C  17,C   7,C   6)    -24.2884         0.015314   
    194. D(C  19,C  17,C   7,C   8)    -25.0554         0.015314   
    195. D(C  19,C  17,C   7,C   6)    155.5657         0.015314   
    196. D(H  34,C  18,C  16,H  32)   -178.2095         0.030060   
    197. D(H  34,C  18,C  16,C   0)      2.4238         0.030060   
    198. D(C  20,C  18,C  16,H  32)      0.7915         0.030060   
    199. D(C  20,C  18,C  16,C   0)   -178.5753         0.030060   
    200. D(H  35,C  19,C  17,H  33)    176.6628         0.037440   
    201. D(H  35,C  19,C  17,C   7)     -3.1952         0.037440   
    202. D(O  21,C  19,C  17,H  33)     -2.9279         0.037440   
    203. D(O  21,C  19,C  17,C   7)    177.2141         0.037440   
    204. D(C  22,O  21,C  19,H  35)     -6.5566         0.031483   
    205. D(C  22,O  21,C  19,C  17)    173.0597         0.031483   
    206. D(H  38,C  22,O  21,C  19)     58.1884         0.020696   
    207. D(H  37,C  22,O  21,C  19)    -63.8629         0.020696   
    208. D(H  36,C  22,O  21,C  19)    177.1195         0.020696   
    -----------------------------------------------------------------

Number of atoms                         .... 39
Number of degrees of freedom            .... 208

         *************************************************************
         *                GEOMETRY OPTIMIZATION CYCLE   1            *
         *************************************************************
---------------------------------
CARTESIAN COORDINATES (ANGSTROEM)
---------------------------------
  C     -7.218676    3.479653   -0.232700
  C     -5.952967    4.104784   -0.196300
  C     -4.776393    3.379080   -0.141538
  C     -4.798248    1.969621   -0.114728
  C     -3.594932    1.198039   -0.034215
  C     -3.624868   -0.167198   -0.001982
  C     -4.861020   -0.897695   -0.057955
  C     -4.905811   -2.326876   -0.032756
  C     -6.168761   -2.954982   -0.079734
  C     -7.350347   -2.230292   -0.132815
  C     -7.337027   -0.823442   -0.160924
  C     -8.539310   -0.050962   -0.240555
  C     -8.514066    1.314043   -0.272320
  C     -7.278311    2.048773   -0.215745
  C     -6.056073    1.291685   -0.153130
  C     -6.081510   -0.143622   -0.125845
  C     -8.438194    4.283572   -0.264286
  C     -3.678058   -3.124029    0.026516
  C     -8.518562    5.627093   -0.552765
  C     -3.589837   -4.380282    0.509729
  C     -9.774263    6.309321   -0.521515
  O     -2.431290   -5.069104    0.479087
  C     -2.412569   -6.316188    1.146544
  N    -10.789664    6.882456   -0.505818
  H     -5.894751    5.195501   -0.178288
  H     -3.814880    3.897777   -0.100976
  H     -2.639132    1.727473    0.008178
  H     -2.684520   -0.713012    0.076662
  H     -6.218694   -4.045640   -0.109770
  H     -8.309304   -2.754302   -0.176589
  H     -9.496057   -0.579482   -0.281414
  H     -9.461440    1.846840   -0.351437
  H     -9.395898    3.755876   -0.020511
  H     -2.746483   -2.688042   -0.341622
  H     -7.624008    6.257036   -0.841456
  H     -4.446474   -4.902633    0.955851
  H     -1.421104   -6.757529    0.977542
  H     -2.570168   -6.197550    2.234112
  H     -3.181127   -7.002598    0.746054

----------------------------
CARTESIAN COORDINATES (A.U.)
----------------------------
  NO LB      ZA    FRAG     MASS         X           Y           Z
   0 C     6.0000    0    12.011  -13.641321    6.575591   -0.439739
   1 C     6.0000    0    12.011  -11.249477    7.756918   -0.370953
   2 C     6.0000    0    12.011   -9.026075    6.385536   -0.267468
   3 C     6.0000    0    12.011   -9.067375    3.722044   -0.216804
   4 C     6.0000    0    12.011   -6.793437    2.263966   -0.064657
   5 C     6.0000    0    12.011   -6.850008   -0.315958   -0.003745
   6 C     6.0000    0    12.011   -9.185997   -1.696398   -0.109519
   7 C     6.0000    0    12.011   -9.270639   -4.397158   -0.061900
   8 C     6.0000    0    12.011  -11.657269   -5.584107   -0.150675
   9 C     6.0000    0    12.011  -13.890143   -4.214641   -0.250984
  10 C     6.0000    0    12.011  -13.864972   -1.556080   -0.304102
  11 C     6.0000    0    12.011  -16.136957   -0.096304   -0.454583
  12 C     6.0000    0    12.011  -16.089253    2.483181   -0.514610
  13 C     6.0000    0    12.011  -13.754015    3.871620   -0.407699
  14 C     6.0000    0    12.011  -11.444319    2.440931   -0.289374
  15 C     6.0000    0    12.011  -11.492388   -0.271406   -0.237813
  16 C     6.0000    0    12.011  -15.945876    8.094778   -0.499428
  17 C     6.0000    0    12.011   -6.950522   -5.903559    0.050108
  18 C     6.0000    0    12.011  -16.097749   10.633665   -1.044574
  19 C     6.0000    0    12.011   -6.783809   -8.277533    0.963248
  20 C     6.0000    0    12.011  -18.470680   11.922889   -0.985521
  21 O     8.0000    0    15.999   -4.594472   -9.579218    0.905343
  22 C     6.0000    0    12.011   -4.559095  -11.935866    2.166654
  23 N     7.0000    0    14.007  -20.389510   13.005957   -0.955857
  24 H     1.0000    0     1.008  -11.139465    9.818074   -0.336915
  25 H     1.0000    0     1.008   -7.209078    7.365731   -0.190817
  26 H     1.0000    0     1.008   -4.987237    3.264451    0.015454
  27 H     1.0000    0     1.008   -5.073008   -1.347397    0.144870
  28 H     1.0000    0     1.008  -11.751629   -7.645152   -0.207435
  29 H     1.0000    0     1.008  -15.702309   -5.204876   -0.333705
  30 H     1.0000    0     1.008  -17.944947   -1.095062   -0.531795
  31 H     1.0000    0     1.008  -17.879530    3.490022   -0.664120
  32 H     1.0000    0     1.008  -17.755674    7.097577   -0.038760
  33 H     1.0000    0     1.008   -5.190101   -5.079663   -0.645572
  34 H     1.0000    0     1.008  -14.407287   11.824084   -1.590121
  35 H     1.0000    0     1.008   -8.402618   -9.264634    1.806297
  36 H     1.0000    0     1.008   -2.685497  -12.769879    1.847287
  37 H     1.0000    0     1.008   -4.856914  -11.711672    4.221860
  38 H     1.0000    0     1.008   -6.011459  -13.232992    1.409838

--------------------------------
INTERNAL COORDINATES (ANGSTROEM)
--------------------------------
 C      0   0   0     0.000000000000     0.00000000     0.00000000
 C      1   0   0     1.412137741101     0.00000000     0.00000000
 C      2   1   0     1.383463606220   122.07824115     0.00000000
 C      3   2   1     1.409883360355   120.79497793   359.76164316
 C      4   3   2     1.431708951480   121.78966524   181.12594132
 C      5   4   3     1.365945532060   121.43637662   179.66924191
 C      6   5   4     1.436951847085   121.73802676     0.51157815
 C      7   6   5     1.430104735340   122.29606962   179.63409212
 C      8   7   6     1.411299678389   118.17777465   179.42517203
 C      9   8   7     1.387133253893   122.07572949   359.22444649
 C     10   9   8     1.407193824880   120.99818437     0.89529439
 C     11  10   9     1.431275954752   122.19094184   178.82255342
 C     12  11  10     1.365607895696   121.68454252   180.25331168
 C      1   2   3     1.432222531470   118.63868522   359.82827738
 C      4   3   2     1.429403954215   119.16102586     0.38014258
 C     11  10   9     1.428183708747   118.92848127   359.62940670
 C      1   2   3     1.460995409398   120.34007032   178.81927327
 C      8   7   6     1.465040444630   121.21365578   358.81874808
 C     17   1   2     1.376491128306   126.18122983    15.10292448
 C     18   8   7     1.348869655756   125.17390854   155.56567590
 C     19  17   1     1.429404284268   120.83440311   181.42472393
 O     20  18   8     1.348200960932   121.59419542   177.21411035
 C     22  20  18     1.414591045407   116.81223122   173.05973458
 N     21  19  17     1.166091469326   178.95577381   192.54163778
 H      2   1   3     1.092418010145   119.35273619   182.00515321
 H      3   2   1     1.093251619172   120.03740918   180.82341039
 H      5   4   3     1.093458351655   118.41849406     0.06715298
 H      6   5   4     1.090115664705   118.89666008   181.02734258
 H      9   8   7     1.092213504196   119.09428545   177.08898357
 H     10   9   8     1.093664103381   119.87535265   179.49103101
 H     12  11  10     1.093785934399   118.42783592   359.94605239
 H     13  12  11     1.089793392701   118.31380489   178.91434011
 H     17   1   2     1.120306328937   116.72288966   195.73409409
 H     18   8   7     1.092447816529   118.93646035   335.71162045
 H     19  17   1     1.131546523854   123.41412662     2.42375504
 H     20  18   8     1.098044787727   122.51829242   356.80478729
 H     23  22  20     1.098338017420   107.07294598   177.11952088
 H     23  22  20     1.105312885327   111.57698464   296.13708488
 H     23  22  20     1.105546167088   111.54502235    58.18835127

---------------------------
INTERNAL COORDINATES (A.U.)
---------------------------
 C      0   0   0     0.000000000000     0.00000000     0.00000000
 C      1   0   0     2.668553594055     0.00000000     0.00000000
 C      2   1   0     2.614367332003   122.07824115     0.00000000
 C      3   2   1     2.664293431844   120.79497793   359.76164316
 C      4   3   2     2.705537821781   121.78966524   181.12594132
 C      5   4   3     2.581262969446   121.43637662   179.66924191
 C      6   5   4     2.715445458624   121.73802676     0.51157815
 C      7   6   5     2.702506292617   122.29606962   179.63409212
 C      8   7   6     2.666969885046   118.17777465   179.42517203
 C      9   8   7     2.621301961114   122.07572949   359.22444649
 C     10   9   8     2.659210946369   120.99818437     0.89529439
 C     11  10   9     2.704719576547   122.19094184   178.82255342
 C     12  11  10     2.580624929185   121.68454252   180.25331168
 C      1   2   3     2.706508347309   118.63868522   359.82827738
 C      4   3   2     2.701182008210   119.16102586     0.38014258
 C     11  10   9     2.698876078460   118.92848127   359.62940670
 C      1   2   3     2.760881206678   120.34007032   178.81927327
 C      8   7   6     2.768525215469   121.21365578   358.81874808
 C     17   1   2     2.601191258271   126.18122983    15.10292448
 C     18   8   7     2.548994239735   125.17390854   155.56567590
 C     19  17   1     2.701182631921   120.83440311   181.42472393
 O     20  18   8     2.547730589650   121.59419542   177.21411035
 C     22  20  18     2.673189667317   116.81223122   173.05973458
 N     21  19  17     2.203593524128   178.95577381   192.54163778
 H      2   1   3     2.064370862937   119.35273619   182.00515321
 H      3   2   1     2.065946155701   120.03740918   180.82341039
 H      5   4   3     2.066336823478   118.41849406     0.06715298
 H      6   5   4     2.060020060591   118.89666008   181.02734258
 H      9   8   7     2.063984402702   119.09428545   177.08898357
 H     10   9   8     2.066725637891   119.87535265   179.49103101
 H     12  11  10     2.066955865150   118.42783592   359.94605239
 H     13  12  11     2.059411054761   118.31380489   178.91434011
 H     17   1   2     2.117072147790   116.72288966   195.73409409
 H     18   8   7     2.064427188839   118.93646035   335.71162045
 H     19  17   1     2.138313037875   123.41412662     2.42375504
 H     20  18   8     2.075003931583   122.51829242   356.80478729
 H     23  22  20     2.075558055398   107.07294598   177.11952088
 H     23  22  20     2.088738645562   111.57698464   296.13708488
 H     23  22  20     2.089179484204   111.54502235    58.18835127

---------------------
BASIS SET INFORMATION
---------------------
There are 4 groups of distinct atoms

 Group   1 Type C   : 7s4p1d contracted to 3s2p1d pattern {511/31/1}
 Group   2 Type O   : 7s4p1d contracted to 3s2p1d pattern {511/31/1}
 Group   3 Type N   : 7s4p1d contracted to 3s2p1d pattern {511/31/1}
 Group   4 Type H   : 4s1p contracted to 2s1p pattern {31/1}

Atom   0C    basis set group =>   1
Atom   1C    basis set group =>   1
Atom   2C    basis set group =>   1
Atom   3C    basis set group =>   1
Atom   4C    basis set group =>   1
Atom   5C    basis set group =>   1
Atom   6C    basis set group =>   1
Atom   7C    basis set group =>   1
Atom   8C    basis set group =>   1
Atom   9C    basis set group =>   1
Atom  10C    basis set group =>   1
Atom  11C    basis set group =>   1
Atom  12C    basis set group =>   1
Atom  13C    basis set group =>   1
Atom  14C    basis set group =>   1
Atom  15C    basis set group =>   1
Atom  16C    basis set group =>   1
Atom  17C    basis set group =>   1
Atom  18C    basis set group =>   1
Atom  19C    basis set group =>   1
Atom  20C    basis set group =>   1
Atom  21O    basis set group =>   2
Atom  22C    basis set group =>   1
Atom  23N    basis set group =>   3
Atom  24H    basis set group =>   4
Atom  25H    basis set group =>   4
Atom  26H    basis set group =>   4
Atom  27H    basis set group =>   4
Atom  28H    basis set group =>   4
Atom  29H    basis set group =>   4
Atom  30H    basis set group =>   4
Atom  31H    basis set group =>   4
Atom  32H    basis set group =>   4
Atom  33H    basis set group =>   4
Atom  34H    basis set group =>   4
Atom  35H    basis set group =>   4
Atom  36H    basis set group =>   4
Atom  37H    basis set group =>   4
Atom  38H    basis set group =>   4
---------------------------------
AUXILIARY/J BASIS SET INFORMATION
---------------------------------
There are 4 groups of distinct atoms

 Group   1 Type C   : 12s5p4d2f1g contracted to 6s4p3d1f1g pattern {711111/2111/211/2/1}
 Group   2 Type O   : 12s5p4d2f1g contracted to 6s4p3d1f1g pattern {711111/2111/211/2/1}
 Group   3 Type N   : 12s5p4d2f1g contracted to 6s4p3d1f1g pattern {711111/2111/211/2/1}
 Group   4 Type H   : 5s2p1d contracted to 3s1p1d pattern {311/2/1}

Atom   0C    basis set group =>   1
Atom   1C    basis set group =>   1
Atom   2C    basis set group =>   1
Atom   3C    basis set group =>   1
Atom   4C    basis set group =>   1
Atom   5C    basis set group =>   1
Atom   6C    basis set group =>   1
Atom   7C    basis set group =>   1
Atom   8C    basis set group =>   1
Atom   9C    basis set group =>   1
Atom  10C    basis set group =>   1
Atom  11C    basis set group =>   1
Atom  12C    basis set group =>   1
Atom  13C    basis set group =>   1
Atom  14C    basis set group =>   1
Atom  15C    basis set group =>   1
Atom  16C    basis set group =>   1
Atom  17C    basis set group =>   1
Atom  18C    basis set group =>   1
Atom  19C    basis set group =>   1
Atom  20C    basis set group =>   1
Atom  21O    basis set group =>   2
Atom  22C    basis set group =>   1
Atom  23N    basis set group =>   3
Atom  24H    basis set group =>   4
Atom  25H    basis set group =>   4
Atom  26H    basis set group =>   4
Atom  27H    basis set group =>   4
Atom  28H    basis set group =>   4
Atom  29H    basis set group =>   4
Atom  30H    basis set group =>   4
Atom  31H    basis set group =>   4
Atom  32H    basis set group =>   4
Atom  33H    basis set group =>   4
Atom  34H    basis set group =>   4
Atom  35H    basis set group =>   4
Atom  36H    basis set group =>   4
Atom  37H    basis set group =>   4
Atom  38H    basis set group =>   4


           ************************************************************
           *        Program running with 8 parallel MPI-processes     *
           *              working on a common directory               *
           ************************************************************
------------------------------------------------------------------------------
                           ORCA GTO INTEGRAL CALCULATION
                           -- RI-GTO INTEGRALS CHOSEN --
------------------------------------------------------------------------------
------------------------------------------------------------------------------
                   ___                                                        
                  /   \      - P O W E R E D   B Y -                         
                 /     \                                                     
                 |  |  |   _    _      __       _____    __    __             
                 |  |  |  | |  | |    /  \     |  _  \  |  |  /  |          
                  \  \/   | |  | |   /    \    | | | |  |  | /  /          
                 / \  \   | |__| |  /  /\  \   | |_| |  |  |/  /          
                |  |  |   |  __  | /  /__\  \  |    /   |      \           
                |  |  |   | |  | | |   __   |  |    \   |  |\   \          
                \     /   | |  | | |  |  |  |  | |\  \  |  | \   \       
                 \___/    |_|  |_| |__|  |__|  |_| \__\ |__|  \__/        
                                                                              
                      - O R C A' S   B I G   F R I E N D -                    
                                      &                                       
                       - I N T E G R A L  F E E D E R -                       
                                                                              
 v1 FN, 2020, v2 2021                                                         
------------------------------------------------------------------------------


Reading SHARK input file NC_OMe_3.SHARKINP.tmp ... ok
----------------------
SHARK INTEGRAL PACKAGE
----------------------

Number of atoms                             ...     39
Number of basis functions                   ...    411
Number of shells                            ...    189
Maximum angular momentum                    ...      2
Integral batch strategy                     ... SHARK/LIBINT Hybrid
RI-J (if used) integral strategy            ... SPLIT-RIJ (Revised 2003 algorithm where possible)
Printlevel                                  ...      1
Contraction scheme used                     ... SEGMENTED contraction
Coulomb Range Separation                    ... NOT USED
Exchange Range Separation                   ... NOT USED
Finite Nucleus Model                        ... NOT USED
Auxiliary Coulomb fitting basis             ... AVAILABLE
   # of basis functions in Aux-J            ...   1341
   # of shells in Aux-J                     ...    435
   Maximum angular momentum in Aux-J        ...      4
Auxiliary J/K fitting basis                 ... NOT available
Auxiliary Correlation fitting basis         ... NOT available
Auxiliary 'external' fitting basis          ... NOT available
Integral threshold                          ...     1.000000e-12
Primitive cut-off                           ...     1.000000e-14
Primitive pair pre-selection threshold      ...     1.000000e-14

Calculating pre-screening integrals         ... done (  0.0 sec) Dimension = 189
Organizing shell pair data                  ... done (  4.7 sec)
Shell pair information
Total number of shell pairs                 ...     17955
Shell pairs after pre-screening             ...     12812
Total number of primitive shell pairs       ...     66423
Primitive shell pairs kept                  ...     30659
          la=0 lb=0:   3783 shell pairs
          la=1 lb=0:   4705 shell pairs
          la=1 lb=1:   1506 shell pairs
          la=2 lb=0:   1608 shell pairs
          la=2 lb=1:   1020 shell pairs
          la=2 lb=2:    190 shell pairs

Calculating one electron integrals          ... done (  0.0 sec)
Calculating RI/J V-Matrix + Cholesky decomp.... done (  2.6 sec)
Calculating Nuclear repulsion               ... done (  0.1 sec) ENN=   1734.776149550021 Eh

SHARK setup successfully completed in   8.4 seconds

Maximum memory used throughout the entire GTOINT-calculation: 23.2 MB


           ************************************************************
           *        Program running with 8 parallel MPI-processes     *
           *              working on a common directory               *
           ************************************************************
-------------------------------------------------------------------------------
                                 ORCA SCF
-------------------------------------------------------------------------------

------------
SCF SETTINGS
------------
Hamiltonian:
 Density Functional     Method          .... DFT(GTOs)
 Exchange Functional    Exchange        .... B88
   X-Alpha parameter    XAlpha          ....  0.666667
   Becke's b parameter  XBeta           ....  0.004200
 Correlation Functional Correlation     .... LYP
 LDA part of GGA corr.  LDAOpt          .... VWN-5
 Gradients option       PostSCFGGA      .... off
 Hybrid DFT is turned on
   Fraction HF Exchange ScalHFX         ....  0.200000
   Scaling of DF-GGA-X  ScalDFX         ....  0.720000
   Scaling of DF-GGA-C  ScalDFC         ....  0.810000
   Scaling of DF-LDA-C  ScalLDAC        ....  1.000000
   Perturbative correction              ....  0.000000
   Density functional embedding theory  .... OFF
   NL short-range parameter             ....  4.800000
 RI-approximation to the Coulomb term is turned on
   Number of AuxJ basis functions       .... 1341
   RIJ-COSX (HFX calculated with COS-X)).... on


General Settings:
 Integral files         IntName         .... NC_OMe_3
 Hartree-Fock type      HFTyp           .... RHF
 Total Charge           Charge          ....    0
 Multiplicity           Mult            ....    1
 Number of Electrons    NEL             ....  162
 Basis Dimension        Dim             ....  411
 Nuclear Repulsion      ENuc            ....   1734.7761495500 Eh

Convergence Acceleration:
 DIIS                   CNVDIIS         .... on
   Start iteration      DIISMaxIt       ....     0
   Startup error        DIISStart       ....  0.200000
   # of expansion vecs  DIISMaxEq       ....     5
   Bias factor          DIISBfac        ....   1.050
   Max. coefficient     DIISMaxC        ....  10.000
 Trust-Rad. Augm. Hess. CNVTRAH         .... auto
   Auto Start mean grad. ratio tolernc. ....  1.125000
   Auto Start start iteration           ....    20
   Auto Start num. interpolation iter.  ....    10
   Max. Number of Micro iterations      ....    16
   Max. Number of Macro iterations      .... Maxiter - #DIIS iter
   Number of Davidson start vectors     ....     2
   Converg. threshold I  (grad. norm)   ....   2.000e-06
   Converg. threshold II (energy diff.) ....   1.000e-09
   Grad. Scal. Fac. for Micro threshold ....   0.100
   Minimum threshold for Micro iter.    ....   0.010
   NR start threshold (gradient norm)   ....   0.001
   Initial trust radius                 ....   0.400
   Minimum AH scaling param. (alpha)    ....   1.000
   Maximum AH scaling param. (alpha)    .... 1000.000
   Orbital update algorithm             .... Taylor
   White noise on init. David. guess    .... on
   Maximum white noise                  ....   0.010
   Quad. conv. algorithm                .... NR
 SOSCF                  CNVSOSCF        .... on
   Start iteration      SOSCFMaxIt      ....   150
   Startup grad/error   SOSCFStart      ....  0.001000
 Level Shifting         CNVShift        .... on
   Level shift para.    LevelShift      ....    0.2500
   Turn off err/grad.   ShiftErr        ....    0.0000
 Zerner damping         CNVZerner       .... off
 Static damping         CNVDamp         .... on
   Fraction old density DampFac         ....    0.8500
   Max. Damping (<1)    DampMax         ....    0.9800
   Min. Damping (>=0)   DampMin         ....    0.0000
   Turn off err/grad.   DampErr         ....    0.0300
 Fernandez-Rico         CNVRico         .... off

SCF Procedure:
 Maximum # iterations   MaxIter         ....   125
 SCF integral mode      SCFMode         .... Direct
   Integral package                     .... SHARK and LIBINT hybrid scheme
 Reset frequency        DirectResetFreq ....    20
 Integral Threshold     Thresh          ....  1.000e-12 Eh
 Primitive CutOff       TCut            ....  1.000e-14 Eh

Convergence Tolerance:
 Convergence Check Mode ConvCheckMode   .... Total+1el-Energy
 Convergence forced     ConvForced      .... 0
 Energy Change          TolE            ....  1.000e-09 Eh
 1-El. energy change                    ....  1.000e-06 Eh
 Orbital Gradient       TolG            ....  2.000e-06
 Orbital Rotation angle TolX            ....  2.000e-06
 DIIS Error             TolErr          ....  1.000e-08


Diagonalization of the overlap matrix:
Smallest eigenvalue                        ... 2.005e-04
Time for diagonalization                   ...    0.034 sec
Threshold for overlap eigenvalues          ... 1.000e-08
Number of eigenvalues below threshold      ... 0
Time for construction of square roots      ...    0.030 sec
Total time needed                          ...    0.065 sec

Time for model grid setup =    0.383 sec

------------------------------
INITIAL GUESS: MODEL POTENTIAL
------------------------------
Loading Hartree-Fock densities                     ... done
Calculating cut-offs                               ... done
Initializing the effective Hamiltonian             ... done
Setting up the integral package (SHARK)            ... done
Starting the Coulomb interaction                   ... done (   0.3 sec)
Reading the grid                                   ... done
Mapping shells                                     ... done
Starting the XC term evaluation                    ... done (   0.2 sec)
  promolecular density results
     # of electrons  =    161.990973421
     EX              =   -132.259212222
     EC              =     -5.485697720
     EX+EC           =   -137.744909942
Transforming the Hamiltonian                       ... done (   0.0 sec)
Diagonalizing the Hamiltonian                      ... done (   0.0 sec)
Back transforming the eigenvectors                 ... done (   0.0 sec)
Now organizing SCF variables                       ... done
                      ------------------
                      INITIAL GUESS DONE (   0.9 sec)
                      ------------------
-------------------
DFT GRID GENERATION
-------------------

General Integration Accuracy     IntAcc      ... 4.959
Radial Grid Type                 RadialGrid  ... OptM3 with GC (2021)
Angular Grid (max. ang.)         AngularGrid ... 6 (Lebedev-590)
Angular grid pruning method      GridPruning ... 4 (adaptive)
Weight generation scheme         WeightScheme... Becke
Basis function cutoff            BFCut       ... 1.0000e-12
Integration weight cutoff        WCut        ... 1.0000e-14
Angular grids for H and He will be reduced by one unit
Partially contracted basis set               ... off
Rotationally invariant grid construction     ... off

Total number of grid points                  ...   468360
Total number of batches                      ...     7338
Average number of points per batch           ...       63
Average number of grid points per atom       ...    12009
Time for grid setup =   10.924 sec

--------------------
COSX GRID GENERATION
--------------------

GRIDX 1
-------
General Integration Accuracy     IntAcc      ... 4.020
Radial Grid Type                 RadialGrid  ... OptM3 with GC (2021)
Angular Grid (max. ang.)         AngularGrid ... 2 (Lebedev-110)
Angular grid pruning method      GridPruning ... 4 (adaptive)
Weight generation scheme         WeightScheme... Becke
Basis function cutoff            BFCut       ... 1.0000e-12
Integration weight cutoff        WCut        ... 1.0000e-14
Angular grids for H and He will be reduced by one unit
Partially contracted basis set               ... on
Rotationally invariant grid construction     ... off

Total number of grid points                  ...    53242
Total number of batches                      ...      852
Average number of points per batch           ...       62
Average number of grid points per atom       ...     1365
UseSFitting                                  ... on

GRIDX 2
-------
General Integration Accuracy     IntAcc      ... 4.338
Radial Grid Type                 RadialGrid  ... OptM3 with GC (2021)
Angular Grid (max. ang.)         AngularGrid ... 3 (Lebedev-194)
Angular grid pruning method      GridPruning ... 4 (adaptive)
Weight generation scheme         WeightScheme... Becke
Basis function cutoff            BFCut       ... 1.0000e-12
Integration weight cutoff        WCut        ... 1.0000e-14
Angular grids for H and He will be reduced by one unit
Partially contracted basis set               ... on
Rotationally invariant grid construction     ... off

Total number of grid points                  ...   116894
Total number of batches                      ...     1849
Average number of points per batch           ...       63
Average number of grid points per atom       ...     2997
UseSFitting                                  ... on

GRIDX 3
-------
General Integration Accuracy     IntAcc      ... 4.871
Radial Grid Type                 RadialGrid  ... OptM3 with GC (2021)
Angular Grid (max. ang.)         AngularGrid ... 4 (Lebedev-302)
Angular grid pruning method      GridPruning ... 4 (adaptive)
Weight generation scheme         WeightScheme... Becke
Basis function cutoff            BFCut       ... 1.0000e-12
Integration weight cutoff        WCut        ... 1.0000e-14
Angular grids for H and He will be reduced by one unit
Partially contracted basis set               ... on
Rotationally invariant grid construction     ... off

Total number of grid points                  ...   216796
Total number of batches                      ...     3407
Average number of points per batch           ...       63
Average number of grid points per atom       ...     5559
UseSFitting                                  ... on

Time for X-Grid setup             =    6.669 sec

--------------
SCF ITERATIONS
--------------
ITER       Energy         Delta-E        Max-DP      RMS-DP      [F,P]     Damp
               ***  Starting incremental Fock matrix formation  ***
  0   -975.6127673743   0.000000000000 0.04536709  0.00095512  0.2346289 0.8500
  1   -975.7192027696  -0.106435395303 0.04017436  0.00086365  0.1577576 0.8500
                               ***Turning on DIIS***
  2   -975.7903342033  -0.071131433613 0.02841123  0.00068206  0.0927436 0.8500
  3   -975.8366810769  -0.046346873634 0.01360506  0.00047188  0.0529371 0.8500
  4   -975.8712987025  -0.034617625606 0.01174610  0.00035886  0.0414391 0.8500
  5   -975.8980211735  -0.026722470994 0.01034966  0.00029032  0.0366613 0.8500
  6   -975.9196626177  -0.021641444157 0.00909296  0.00024253  0.0316884 0.8500
  7   -975.9375715146  -0.017908896990 0.05318502  0.00137481  0.0265817 0.0000
  8   -976.0325124556  -0.094940941004 0.01436586  0.00011014  0.0177048 0.0000
  9   -976.0325832539  -0.000070798242 0.00569687  0.00004410  0.0164177 0.0000
 10   -976.0328663276  -0.000283073677 0.00132621  0.00001508  0.0046719 0.0000
 11   -976.0328914740  -0.000025146475 0.00049950  0.00000581  0.0014401 0.0000
                      *** Initiating the SOSCF procedure ***
                           *** Shutting down DIIS ***
                      *** Re-Reading the Fockian *** 
                      *** Removing any level shift *** 
ITER      Energy       Delta-E        Grad      Rot      Max-DP    RMS-DP
 12   -976.03289394  -0.0000024620  0.000059  0.000059  0.000113  0.000002
               *** Restarting incremental Fock matrix formation ***
 13   -976.03287299   0.0000209449  0.000037  0.000256  0.000082  0.000003
 14   -976.03287310  -0.0000001042  0.000028  0.000160  0.000083  0.000002
 15   -976.03287307   0.0000000296  0.000058  0.000101  0.000070  0.000001
 16   -976.03287311  -0.0000000454  0.000011  0.000042  0.000029  0.000001
 17   -976.03287311   0.0000000028  0.000013  0.000031  0.000020  0.000000
 18   -976.03287311  -0.0000000046  0.000001  0.000009  0.000008  0.000000
 19   -976.03287311   0.0000000006  0.000002  0.000007  0.000005  0.000000
                  ***Gradient check signals convergence***
              ***Rediagonalizing the Fockian in SOSCF/NRSCF***

               *****************************************************
               *                     SUCCESS                       *
               *           SCF CONVERGED AFTER  20 CYCLES          *
               *****************************************************

Old exchange energy                            =    -26.772593077 Eh
New exchange energy                            =    -26.772576543 Eh
Exchange energy change after final integration =      0.000016534 Eh
Total energy after final integration           =   -976.032856579 Eh
Final COS-X integration done in                =    20.249 sec

----------------
TOTAL SCF ENERGY
----------------

Total Energy       :         -976.03285658 Eh          -26559.20427 eV

Components:
Nuclear Repulsion  :         1734.77614955 Eh           47205.65892 eV
Electronic Energy  :        -2710.80900613 Eh          -73764.86319 eV
One Electron Energy:        -4765.70395172 Eh         -129681.39740 eV
Two Electron Energy:         2054.89494559 Eh           55916.53421 eV
Max COSX asymmetry :            0.00000047 Eh               0.00001 eV

Virial components:
Potential Energy   :        -1941.79223567 Eh          -52838.85301 eV
Kinetic Energy     :          965.75937909 Eh           26279.64874 eV
Virial Ratio       :            2.01063772


DFT components:
N(Alpha)           :       81.000002826439 electrons
N(Beta)            :       81.000002826439 electrons
N(Total)           :      162.000005652878 electrons
E(X)               :     -106.377958429218 Eh       
E(C)               :       -6.462069310371 Eh       
E(XC)              :     -112.840027739589 Eh       
DFET-embed. en.    :        0.000000000000 Eh       

---------------
SCF CONVERGENCE
---------------

  Last Energy change         ...   -6.0777e-10  Tolerance :   1.0000e-09
  Last MAX-Density change    ...    3.9968e-15  Tolerance :   1.0000e-08
  Last RMS-Density change    ...    4.5196e-17  Tolerance :   1.0000e-09
  Last Orbital Gradient      ...    3.5402e-07  Tolerance :   2.0000e-06
  Last Orbital Rotation      ...    1.9670e-06  Tolerance :   2.0000e-06

             **** THE GBW FILE WAS UPDATED (NC_OMe_3.gbw) ****
             **** DENSITY NC_OMe_3.scfp WAS UPDATED ****
             **** ENERGY FILE WAS UPDATED (NC_OMe_3.en.tmp) ****
             **** THE GBW FILE WAS UPDATED (NC_OMe_3.gbw) ****
             **** DENSITY NC_OMe_3.scfp WAS UPDATED ****
----------------
ORBITAL ENERGIES
----------------

  NO   OCC          E(Eh)            E(eV) 
   0   2.0000     -19.177334      -521.8418 
   1   2.0000     -14.313945      -389.5022 
   2   2.0000     -10.257458      -279.1196 
   3   2.0000     -10.255709      -279.0720 
   4   2.0000     -10.229550      -278.3602 
   5   2.0000     -10.226722      -278.2832 
   6   2.0000     -10.216146      -277.9955 
   7   2.0000     -10.213758      -277.9305 
   8   2.0000     -10.212177      -277.8875 
   9   2.0000     -10.211582      -277.8713 
  10   2.0000     -10.207869      -277.7702 
  11   2.0000     -10.207527      -277.7609 
  12   2.0000     -10.206133      -277.7230 
  13   2.0000     -10.205773      -277.7132 
  14   2.0000     -10.202633      -277.6278 
  15   2.0000     -10.201993      -277.6103 
  16   2.0000     -10.200875      -277.5799 
  17   2.0000     -10.200165      -277.5606 
  18   2.0000     -10.199778      -277.5501 
  19   2.0000     -10.199315      -277.5375 
  20   2.0000     -10.198739      -277.5218 
  21   2.0000     -10.198699      -277.5207 
  22   2.0000     -10.197474      -277.4874 
  23   2.0000     -10.189518      -277.2709 
  24   2.0000      -1.071791       -29.1649 
  25   2.0000      -0.893686       -24.3184 
  26   2.0000      -0.882003       -24.0005 
  27   2.0000      -0.858616       -23.3641 
  28   2.0000      -0.833269       -22.6744 
  29   2.0000      -0.819560       -22.3014 
  30   2.0000      -0.790167       -21.5015 
  31   2.0000      -0.784827       -21.3562 
  32   2.0000      -0.758550       -20.6412 
  33   2.0000      -0.746416       -20.3110 
  34   2.0000      -0.732293       -19.9267 
  35   2.0000      -0.721494       -19.6329 
  36   2.0000      -0.686984       -18.6938 
  37   2.0000      -0.655673       -17.8418 
  38   2.0000      -0.636306       -17.3148 
  39   2.0000      -0.629258       -17.1230 
  40   2.0000      -0.617778       -16.8106 
  41   2.0000      -0.597037       -16.2462 
  42   2.0000      -0.583153       -15.8684 
  43   2.0000      -0.549761       -14.9597 
  44   2.0000      -0.537526       -14.6268 
  45   2.0000      -0.530688       -14.4408 
  46   2.0000      -0.522850       -14.2275 
  47   2.0000      -0.511811       -13.9271 
  48   2.0000      -0.506019       -13.7695 
  49   2.0000      -0.495938       -13.4952 
  50   2.0000      -0.481177       -13.0935 
  51   2.0000      -0.476418       -12.9640 
  52   2.0000      -0.463373       -12.6090 
  53   2.0000      -0.452637       -12.3169 
  54   2.0000      -0.449929       -12.2432 
  55   2.0000      -0.439438       -11.9577 
  56   2.0000      -0.429523       -11.6879 
  57   2.0000      -0.423555       -11.5255 
  58   2.0000      -0.419193       -11.4068 
  59   2.0000      -0.409694       -11.1483 
  60   2.0000      -0.405661       -11.0386 
  61   2.0000      -0.400907       -10.9092 
  62   2.0000      -0.395916       -10.7734 
  63   2.0000      -0.383852       -10.4451 
  64   2.0000      -0.382955       -10.4207 
  65   2.0000      -0.369441       -10.0530 
  66   2.0000      -0.365843        -9.9551 
  67   2.0000      -0.361779        -9.8445 
  68   2.0000      -0.352179        -9.5833 
  69   2.0000      -0.348286        -9.4774 
  70   2.0000      -0.346930        -9.4404 
  71   2.0000      -0.340751        -9.2723 
  72   2.0000      -0.328657        -8.9432 
  73   2.0000      -0.322001        -8.7621 
  74   2.0000      -0.320921        -8.7327 
  75   2.0000      -0.296237        -8.0610 
  76   2.0000      -0.276260        -7.5174 
  77   2.0000      -0.266244        -7.2449 
  78   2.0000      -0.243021        -6.6129 
  79   2.0000      -0.235164        -6.3991 
  80   2.0000      -0.195555        -5.3213 
  81   0.0000      -0.089938        -2.4473 
  82   0.0000      -0.050269        -1.3679 
  83   0.0000      -0.039726        -1.0810 
  84   0.0000      -0.017762        -0.4833 
  85   0.0000       0.003217         0.0876 
  86   0.0000       0.021245         0.5781 
  87   0.0000       0.035866         0.9760 
  88   0.0000       0.050318         1.3692 
  89   0.0000       0.059387         1.6160 
  90   0.0000       0.061310         1.6683 
  91   0.0000       0.065558         1.7839 
  92   0.0000       0.074211         2.0194 
  93   0.0000       0.083705         2.2777 
  94   0.0000       0.089674         2.4401 
  95   0.0000       0.099484         2.7071 
  96   0.0000       0.100650         2.7388 
  97   0.0000       0.104920         2.8550 
  98   0.0000       0.112515         3.0617 
  99   0.0000       0.115826         3.1518 
 100   0.0000       0.122672         3.3381 
 101   0.0000       0.123335         3.3561 
 102   0.0000       0.127414         3.4671 
 103   0.0000       0.146554         3.9879 
 104   0.0000       0.160002         4.3539 
 105   0.0000       0.163942         4.4611 
 106   0.0000       0.177679         4.8349 
 107   0.0000       0.192344         5.2340 
 108   0.0000       0.213592         5.8121 
 109   0.0000       0.218070         5.9340 
 110   0.0000       0.229009         6.2317 
 111   0.0000       0.230559         6.2738 
 112   0.0000       0.239552         6.5185 
 113   0.0000       0.243370         6.6224 
 114   0.0000       0.248751         6.7689 
 115   0.0000       0.257778         7.0145 
 116   0.0000       0.266116         7.2414 
 117   0.0000       0.269657         7.3377 
 118   0.0000       0.279381         7.6023 
 119   0.0000       0.293612         7.9896 
 120   0.0000       0.293992         7.9999 
 121   0.0000       0.310272         8.4429 
 122   0.0000       0.313512         8.5311 
 123   0.0000       0.319260         8.6875 
 124   0.0000       0.321327         8.7437 
 125   0.0000       0.330323         8.9885 
 126   0.0000       0.333491         9.0748 
 127   0.0000       0.339965         9.2509 
 128   0.0000       0.349200         9.5022 
 129   0.0000       0.353722         9.6253 
 130   0.0000       0.362249         9.8573 
 131   0.0000       0.372346        10.1321 
 132   0.0000       0.380039        10.3414 
 133   0.0000       0.384857        10.4725 
 134   0.0000       0.399216        10.8632 
 135   0.0000       0.404686        11.0121 
 136   0.0000       0.413218        11.2442 
 137   0.0000       0.423645        11.5280 
 138   0.0000       0.425177        11.5697 
 139   0.0000       0.433120        11.7858 
 140   0.0000       0.438655        11.9364 
 141   0.0000       0.442100        12.0302 
 142   0.0000       0.446788        12.1577 
 143   0.0000       0.453306        12.3351 
 144   0.0000       0.456655        12.4262 
 145   0.0000       0.463142        12.6027 
 146   0.0000       0.468105        12.7378 
 147   0.0000       0.471082        12.8188 
 148   0.0000       0.475306        12.9337 
 149   0.0000       0.477093        12.9824 
 150   0.0000       0.480860        13.0849 
 151   0.0000       0.493580        13.4310 
 152   0.0000       0.496498        13.5104 
 153   0.0000       0.503660        13.7053 
 154   0.0000       0.504791        13.7361 
 155   0.0000       0.512378        13.9425 
 156   0.0000       0.519375        14.1329 
 157   0.0000       0.529636        14.4121 
 158   0.0000       0.541382        14.7318 
 159   0.0000       0.545276        14.8377 
 160   0.0000       0.555122        15.1056 
 161   0.0000       0.559421        15.2226 
 162   0.0000       0.562751        15.3132 
 163   0.0000       0.577131        15.7045 
 164   0.0000       0.585826        15.9411 
 165   0.0000       0.594019        16.1641 
 166   0.0000       0.600164        16.3313 
 167   0.0000       0.610662        16.6169 
 168   0.0000       0.612178        16.6582 
 169   0.0000       0.618094        16.8192 
 170   0.0000       0.623900        16.9772 
 171   0.0000       0.627487        17.0748 
 172   0.0000       0.629163        17.1204 
 173   0.0000       0.635487        17.2925 
 174   0.0000       0.635668        17.2974 
 175   0.0000       0.639985        17.4149 
 176   0.0000       0.642707        17.4890 
 177   0.0000       0.644485        17.5373 
 178   0.0000       0.652063        17.7435 
 179   0.0000       0.653221        17.7750 
 180   0.0000       0.655138        17.8272 
 181   0.0000       0.663604        18.0576 
 182   0.0000       0.667764        18.1708 
 183   0.0000       0.670843        18.2546 
 184   0.0000       0.676315        18.4035 
 185   0.0000       0.682893        18.5825 
 186   0.0000       0.688942        18.7471 
 187   0.0000       0.693298        18.8656 
 188   0.0000       0.704538        19.1715 
 189   0.0000       0.707121        19.2417 
 190   0.0000       0.721696        19.6384 
 191   0.0000       0.728628        19.8270 
 192   0.0000       0.732387        19.9293 
 193   0.0000       0.735951        20.0262 
 194   0.0000       0.743364        20.2280 
 195   0.0000       0.746413        20.3109 
 196   0.0000       0.753338        20.4994 
 197   0.0000       0.759356        20.6631 
 198   0.0000       0.773070        21.0363 
 199   0.0000       0.779960        21.2238 
 200   0.0000       0.781310        21.2605 
 201   0.0000       0.791863        21.5477 
 202   0.0000       0.795786        21.6544 
 203   0.0000       0.810432        22.0530 
 204   0.0000       0.828400        22.5419 
 205   0.0000       0.837643        22.7934 
 206   0.0000       0.839249        22.8371 
 207   0.0000       0.852535        23.1987 
 208   0.0000       0.857305        23.3285 
 209   0.0000       0.868420        23.6309 
 210   0.0000       0.884354        24.0645 
 211   0.0000       0.890422        24.2296 
 212   0.0000       0.898677        24.4542 
 213   0.0000       0.918906        25.0047 
 214   0.0000       0.938698        25.5433 
 215   0.0000       0.964482        26.2449 
 216   0.0000       0.976385        26.5688 
 217   0.0000       0.994817        27.0704 
 218   0.0000       1.008302        27.4373 
 219   0.0000       1.016370        27.6568 
 220   0.0000       1.027752        27.9665 
 221   0.0000       1.052869        28.6500 
 222   0.0000       1.066002        29.0074 
 223   0.0000       1.081360        29.4253 
 224   0.0000       1.098446        29.8902 
 225   0.0000       1.108594        30.1664 
 226   0.0000       1.117345        30.4045 
 227   0.0000       1.125906        30.6374 
 228   0.0000       1.129859        30.7450 
 229   0.0000       1.150599        31.3094 
 230   0.0000       1.160612        31.5819 
 231   0.0000       1.179249        32.0890 
 232   0.0000       1.186941        32.2983 
 233   0.0000       1.201377        32.6911 
 234   0.0000       1.208814        32.8935 
 235   0.0000       1.214512        33.0486 
 236   0.0000       1.226412        33.3724 
 237   0.0000       1.229590        33.4588 
 238   0.0000       1.239651        33.7326 
 239   0.0000       1.242343        33.8059 
 240   0.0000       1.251923        34.0666 
 241   0.0000       1.256729        34.1973 
 242   0.0000       1.264367        34.4052 
 243   0.0000       1.266673        34.4679 
 244   0.0000       1.281407        34.8689 
 245   0.0000       1.289216        35.0814 
 246   0.0000       1.295074        35.2408 
 247   0.0000       1.300973        35.4013 
 248   0.0000       1.329563        36.1793 
 249   0.0000       1.333766        36.2936 
 250   0.0000       1.338283        36.4165 
 251   0.0000       1.345030        36.6001 
 252   0.0000       1.358252        36.9599 
 253   0.0000       1.363344        37.0985 
 254   0.0000       1.371452        37.3191 
 255   0.0000       1.385304        37.6960 
 256   0.0000       1.400182        38.1009 
 257   0.0000       1.425831        38.7988 
 258   0.0000       1.459137        39.7051 
 259   0.0000       1.467075        39.9212 
 260   0.0000       1.480870        40.2965 
 261   0.0000       1.495339        40.6902 
 262   0.0000       1.501327        40.8532 
 263   0.0000       1.505724        40.9728 
 264   0.0000       1.510500        41.1028 
 265   0.0000       1.542522        41.9742 
 266   0.0000       1.602588        43.6086 
 267   0.0000       1.618749        44.0484 
 268   0.0000       1.625325        44.2273 
 269   0.0000       1.626660        44.2637 
 270   0.0000       1.649065        44.8733 
 271   0.0000       1.652424        44.9647 
 272   0.0000       1.654621        45.0245 
 273   0.0000       1.664264        45.2869 
 274   0.0000       1.674707        45.5711 
 275   0.0000       1.680652        45.7329 
 276   0.0000       1.684273        45.8314 
 277   0.0000       1.690966        46.0135 
 278   0.0000       1.694445        46.1082 
 279   0.0000       1.700262        46.2665 
 280   0.0000       1.715324        46.6763 
 281   0.0000       1.716818        46.7170 
 282   0.0000       1.731047        47.1042 
 283   0.0000       1.732696        47.1491 
 284   0.0000       1.737056        47.2677 
 285   0.0000       1.739352        47.3302 
 286   0.0000       1.746849        47.5342 
 287   0.0000       1.751691        47.6659 
 288   0.0000       1.759295        47.8729 
 289   0.0000       1.760957        47.9181 
 290   0.0000       1.765563        48.0434 
 291   0.0000       1.770858        48.1875 
 292   0.0000       1.773526        48.2601 
 293   0.0000       1.787438        48.6387 
 294   0.0000       1.795474        48.8573 
 295   0.0000       1.799133        48.9569 
 296   0.0000       1.808463        49.2108 
 297   0.0000       1.817088        49.4455 
 298   0.0000       1.838439        50.0265 
 299   0.0000       1.842786        50.1448 
 300   0.0000       1.856939        50.5299 
 301   0.0000       1.865426        50.7608 
 302   0.0000       1.876110        51.0515 
 303   0.0000       1.890376        51.4397 
 304   0.0000       1.899694        51.6933 
 305   0.0000       1.902819        51.7783 
 306   0.0000       1.909127        51.9500 
 307   0.0000       1.918977        52.2180 
 308   0.0000       1.926174        52.4138 
 309   0.0000       1.945015        52.9265 
 310   0.0000       1.955753        53.2187 
 311   0.0000       1.961524        53.3758 
 312   0.0000       1.971701        53.6527 
 313   0.0000       1.990971        54.1771 
 314   0.0000       1.994418        54.2709 
 315   0.0000       2.004417        54.5430 
 316   0.0000       2.018120        54.9158 
 317   0.0000       2.037662        55.4476 
 318   0.0000       2.044493        55.6335 
 319   0.0000       2.050047        55.7846 
 320   0.0000       2.054432        55.9039 
 321   0.0000       2.064110        56.1673 
 322   0.0000       2.075455        56.4760 
 323   0.0000       2.087526        56.8045 
 324   0.0000       2.096002        57.0351 
 325   0.0000       2.098846        57.1125 
 326   0.0000       2.126618        57.8682 
 327   0.0000       2.133917        58.0668 
 328   0.0000       2.142933        58.3122 
 329   0.0000       2.153163        58.5905 
 330   0.0000       2.160634        58.7938 
 331   0.0000       2.173494        59.1438 
 332   0.0000       2.182839        59.3981 
 333   0.0000       2.189750        59.5861 
 334   0.0000       2.210966        60.1634 
 335   0.0000       2.215401        60.2841 
 336   0.0000       2.216594        60.3166 
 337   0.0000       2.236390        60.8553 
 338   0.0000       2.248575        61.1868 
 339   0.0000       2.251748        61.2732 
 340   0.0000       2.254960        61.3606 
 341   0.0000       2.258269        61.4506 
 342   0.0000       2.264029        61.6074 
 343   0.0000       2.280131        62.0455 
 344   0.0000       2.286504        62.2189 
 345   0.0000       2.290755        62.3346 
 346   0.0000       2.295595        62.4663 
 347   0.0000       2.304951        62.7209 
 348   0.0000       2.310666        62.8764 
 349   0.0000       2.321861        63.1811 
 350   0.0000       2.332760        63.4776 
 351   0.0000       2.363871        64.3242 
 352   0.0000       2.368807        64.4585 
 353   0.0000       2.376540        64.6689 
 354   0.0000       2.396996        65.2256 
 355   0.0000       2.417878        65.7938 
 356   0.0000       2.431735        66.1709 
 357   0.0000       2.459476        66.9257 
 358   0.0000       2.463201        67.0271 
 359   0.0000       2.488883        67.7259 
 360   0.0000       2.503586        68.1260 
 361   0.0000       2.515478        68.4496 
 362   0.0000       2.523302        68.6625 
 363   0.0000       2.561468        69.7011 
 364   0.0000       2.565023        69.7978 
 365   0.0000       2.576817        70.1188 
 366   0.0000       2.581868        70.2562 
 367   0.0000       2.603387        70.8418 
 368   0.0000       2.616828        71.2075 
 369   0.0000       2.632594        71.6365 
 370   0.0000       2.640589        71.8541 
 371   0.0000       2.656450        72.2857 
 372   0.0000       2.672881        72.7328 
 373   0.0000       2.677096        72.8475 
 374   0.0000       2.684489        73.0487 
 375   0.0000       2.699159        73.4478 
 376   0.0000       2.725959        74.1771 
 377   0.0000       2.748314        74.7854 
 378   0.0000       2.762992        75.1848 
 379   0.0000       2.763970        75.2115 
 380   0.0000       2.771200        75.4082 
 381   0.0000       2.773626        75.4742 
 382   0.0000       2.803825        76.2960 
 383   0.0000       2.820289        76.7440 
 384   0.0000       2.834662        77.1351 
 385   0.0000       2.846001        77.4436 
 386   0.0000       2.868755        78.0628 
 387   0.0000       2.894770        78.7707 
 388   0.0000       2.903228        79.0009 
 389   0.0000       2.908417        79.1420 
 390   0.0000       2.939241        79.9808 
 391   0.0000       2.959609        80.5350 
 392   0.0000       2.967449        80.7484 
 393   0.0000       2.994900        81.4954 
 394   0.0000       2.999861        81.6304 
 395   0.0000       3.005966        81.7965 
 396   0.0000       3.028480        82.4091 
 397   0.0000       3.055270        83.1381 
 398   0.0000       3.098798        84.3226 
 399   0.0000       3.105113        84.4944 
 400   0.0000       3.144166        85.5571 
 401   0.0000       3.188700        86.7689 
 402   0.0000       3.244786        88.2951 
 403   0.0000       3.252515        88.5054 
 404   0.0000       3.365322        91.5751 
 405   0.0000       3.405931        92.6801 
 406   0.0000       3.454362        93.9980 
 407   0.0000       3.514589        95.6368 
 408   0.0000       3.564310        96.9898 
 409   0.0000       3.592398        97.7541 
 410   0.0000       3.644038        99.1593 

                    ********************************
                    * MULLIKEN POPULATION ANALYSIS *
                    ********************************

-----------------------
[...]
    112       0.000007  -0.000048   0.000006
    113       0.000261   0.000410   0.000130
    114      -0.000125  -0.000024  -0.000097
    115      -0.000127  -0.000287  -0.000079
    116      -0.000035   0.000067  -0.000033


-----------
IR SPECTRUM
-----------

 Mode   freq       eps      Int      T**2         TX        TY        TZ
       cm**-1   L/(mol*cm) km/mol    a.u.
----------------------------------------------------------------------------
  6:     20.73   0.000046    0.23  0.000697  (-0.001658 -0.026321 -0.001264)
  7:     36.53   0.000783    3.95  0.006685  (-0.000606  0.047993  0.066188)
  8:     54.02   0.000171    0.86  0.000988  ( 0.026013 -0.011884  0.013050)
  9:     62.48   0.000720    3.64  0.003597  (-0.034196 -0.028470 -0.040215)
 10:     67.36   0.000335    1.69  0.001551  ( 0.001090 -0.027044  0.028608)
 11:     89.94   0.000319    1.61  0.001106  ( 0.020478  0.025358 -0.006581)
 12:     99.66   0.000106    0.53  0.000330  (-0.003277 -0.008414  0.015778)
 13:    116.59   0.000131    0.66  0.000351  ( 0.006664 -0.017333 -0.002525)
 14:    143.19   0.000023    0.12  0.000051  (-0.003896  0.005933 -0.000831)
 15:    157.12   0.000523    2.64  0.001038  (-0.010665  0.014925  0.026483)
 16:    201.98   0.000068    0.34  0.000105  ( 0.000244  0.008729  0.005376)
 17:    210.80   0.000953    4.82  0.001411  ( 0.007938  0.031477 -0.018900)
 18:    222.94   0.001338    6.76  0.001872  (-0.000456 -0.017276 -0.039669)
 19:    245.42   0.000110    0.55  0.000140  ( 0.007756  0.008335 -0.003153)
 20:    266.13   0.000019    0.10  0.000022  ( 0.001916  0.003847  0.001933)
 21:    270.67   0.000141    0.71  0.000163  ( 0.008454 -0.009484 -0.001145)
 22:    297.03   0.000181    0.92  0.000191  ( 0.008319  0.009533  0.005519)
 23:    322.68   0.001391    7.03  0.001346  ( 0.026913 -0.024213 -0.005911)
 24:    369.34   0.000242    1.22  0.000204  (-0.009941  0.009171  0.004607)
 25:    400.05   0.003633   18.36  0.002834  ( 0.033084 -0.041051  0.007353)
 26:    420.66   0.000491    2.48  0.000365  (-0.009754  0.016387 -0.000918)
 27:    452.09   0.000401    2.03  0.000277  ( 0.007504 -0.012550 -0.007947)
 28:    478.14   0.000702    3.55  0.000458  ( 0.014437 -0.015285  0.004035)
 29:    494.26   0.000635    3.21  0.000401  (-0.000709  0.002856  0.019807)
 30:    506.11   0.000150    0.76  0.000093  (-0.003349  0.007187 -0.005455)
 31:    523.03   0.002035   10.29  0.001214  ( 0.008137 -0.033883  0.000216)
 32:    528.12   0.000016    0.08  0.000010  (-0.001564  0.000712 -0.002578)
 33:    543.80   0.000373    1.88  0.000214  (-0.013971  0.004307 -0.000368)
 34:    561.54   0.000026    0.13  0.000015  ( 0.000812 -0.001946 -0.003186)
 35:    566.31   0.000129    0.65  0.000071  ( 0.003468 -0.007665 -0.000395)
 36:    580.06   0.000971    4.91  0.000523  ( 0.012677 -0.012960 -0.013922)
 37:    615.26   0.002229   11.26  0.001131  (-0.016325  0.029221  0.003199)
 38:    630.46   0.000125    0.63  0.000062  ( 0.006879 -0.003825  0.000240)
 39:    677.00   0.000275    1.39  0.000127  (-0.004156  0.009127  0.005131)
 40:    702.37   0.000155    0.78  0.000069  (-0.005643  0.006060  0.000426)
 41:    719.10   0.001127    5.70  0.000489  (-0.001148  0.003705 -0.021774)
 42:    756.15   0.002479   12.53  0.001023  ( 0.003087 -0.000543 -0.031833)
 43:    761.14   0.000294    1.48  0.000120  (-0.005434  0.002606 -0.009172)
 44:    781.26   0.000251    1.27  0.000100  (-0.003629  0.009136 -0.001935)
 45:    815.13   0.005247   26.51  0.002009  ( 0.019498 -0.040322 -0.001583)
 46:    817.78   0.000267    1.35  0.000102  (-0.003181  0.004153 -0.008634)
 47:    831.73   0.001917    9.69  0.000719  (-0.004546  0.011925 -0.023588)
 48:    852.19   0.000866    4.38  0.000317  (-0.005049 -0.007918 -0.015129)
 49:    857.00   0.000178    0.90  0.000065  (-0.004197 -0.001944  0.006589)
 50:    876.77   0.004826   24.39  0.001718  ( 0.005301 -0.007142  0.040478)
 51:    884.74   0.000201    1.01  0.000071  (-0.006530 -0.001286 -0.005151)
 52:    887.91   0.006816   34.44  0.002395  ( 0.007077 -0.007924 -0.047776)
 53:    940.69   0.000358    1.81  0.000119  ( 0.003566 -0.002400  0.010022)
 54:    947.60   0.009539   48.21  0.003141  (-0.024709  0.017464 -0.047178)
 55:    983.98   0.007233   36.55  0.002294  ( 0.013465 -0.035698 -0.028954)
 56:    989.25   0.001667    8.42  0.000526  ( 0.010994 -0.017093  0.010614)
 57:    993.37   0.000164    0.83  0.000052  (-0.002626 -0.006450 -0.001753)
 58:    998.61   0.000549    2.78  0.000172  (-0.007834  0.010503 -0.000183)
 59:   1002.42   0.001970    9.95  0.000613  ( 0.009972 -0.007004  0.021555)
 60:   1012.33   0.000247    1.25  0.000076  (-0.001444  0.008502 -0.001383)
 61:   1016.30   0.000007    0.03  0.000002  (-0.000552  0.000613 -0.001162)
 62:   1039.32   0.000943    4.76  0.000283  (-0.011864 -0.009558  0.007138)
 63:   1046.90   0.005030   25.42  0.001499  (-0.012063 -0.030122  0.021130)
 64:   1120.94   0.003879   19.60  0.001080  (-0.006746  0.031392 -0.006998)
 65:   1131.11   0.000068    0.34  0.000019  ( 0.002232 -0.003631  0.000785)
 66:   1169.61   0.005741   29.01  0.001532  ( 0.013486 -0.036528  0.003945)
 67:   1171.02   0.032553  164.51  0.008675  ( 0.038159 -0.081977  0.022332)
 68:   1180.79   0.003131   15.82  0.000827  (-0.013702  0.024117 -0.007619)
 69:   1187.24   0.002756   13.93  0.000724  (-0.015573  0.021501 -0.004427)
 70:   1200.22   0.000753    3.81  0.000196  (-0.004097 -0.013362 -0.000693)
 71:   1209.38   0.003841   19.41  0.000991  (-0.030673  0.005554 -0.004418)
 72:   1241.26   0.018953   95.78  0.004765  ( 0.034904 -0.058385  0.011744)
 73:   1257.72   0.094371  476.91  0.023415  (-0.068795  0.134964 -0.021610)
 74:   1265.29   0.008965   45.30  0.002211  ( 0.022750 -0.041067  0.002625)
 75:   1271.79   0.002084   10.53  0.000511  ( 0.012388 -0.018021  0.005752)
 76:   1279.34   0.002271   11.48  0.000554  (-0.019860  0.012549  0.001436)
 77:   1293.19   0.089465  452.12  0.021589  (-0.079522  0.120852 -0.025691)
 78:   1308.97   0.012586   63.60  0.003000  (-0.029061  0.044918 -0.011758)
 79:   1327.33   0.002758   13.94  0.000648  (-0.013390  0.021609 -0.001453)
 80:   1338.45   0.001868    9.44  0.000435  ( 0.004038 -0.020314  0.002551)
 81:   1368.14   0.000855    4.32  0.000195  (-0.008967 -0.009113  0.005616)
 82:   1370.82   0.000621    3.14  0.000141  (-0.010666 -0.003544  0.003872)
 83:   1405.99   0.001216    6.15  0.000270  (-0.009935  0.011712 -0.005841)
 84:   1407.12   0.001928    9.74  0.000427  (-0.005546  0.019422 -0.004419)
 85:   1424.61   0.004546   22.98  0.000996  ( 0.008703 -0.030160  0.003248)
 86:   1440.95   0.000491    2.48  0.000106  (-0.006236  0.008197 -0.000432)
 87:   1464.39   0.000862    4.35  0.000184  (-0.001342  0.008867  0.010157)
 88:   1466.17   0.001358    6.87  0.000289  (-0.000872 -0.016177 -0.005166)
 89:   1470.31   0.000722    3.65  0.000153  ( 0.004546 -0.010995 -0.003405)
 90:   1475.07   0.019505   98.57  0.004127  (-0.039035  0.050005 -0.010113)
 91:   1503.56   0.000487    2.46  0.000101  ( 0.008615  0.005156  0.000522)
 92:   1535.80   0.000455    2.30  0.000093  (-0.009511 -0.001421 -0.000238)
 93:   1545.97   0.002399   12.13  0.000484  (-0.008328  0.020371  0.000105)
 94:   1574.38   0.003961   20.02  0.000785  (-0.017894  0.021290 -0.003428)
 95:   1621.71   0.001601    8.09  0.000308  (-0.004176  0.016963 -0.001699)
 96:   1637.98   0.053520  270.47  0.010196  ( 0.054279 -0.084584  0.009787)
 97:   1656.68   0.008228   41.58  0.001550  (-0.002487  0.039252 -0.001701)
 98:   1663.38   0.024185  122.22  0.004537  (-0.036652  0.056129 -0.006599)
 99:   1675.08   0.001077    5.44  0.000201  ( 0.000315 -0.014140  0.000808)
100:   1717.22   0.098978  500.20  0.017987  (-0.063803  0.115971 -0.021606)
101:   2337.73   0.027855  140.77  0.003718  (-0.037485  0.047959 -0.003638)
102:   2995.95   0.032986  166.70  0.003436  ( 0.013698 -0.053527  0.019573)
103:   3068.82   0.007276   36.77  0.000740  ( 0.011031  0.009474  0.022989)
104:   3133.81   0.002027   10.24  0.000202  ( 0.013572 -0.002207 -0.003568)
105:   3145.56   0.003739   18.90  0.000371  ( 0.016735 -0.008928 -0.003351)
106:   3171.14   0.000213    1.08  0.000021  (-0.003653  0.002740 -0.000318)
107:   3173.12   0.000602    3.04  0.000059  (-0.003448  0.006870 -0.000295)
108:   3174.37   0.002088   10.55  0.000205  ( 0.014290 -0.000483  0.000906)
109:   3174.75   0.002783   14.07  0.000274  (-0.015687  0.005167 -0.000897)
110:   3178.01   0.001322    6.68  0.000130  ( 0.011224  0.001905  0.000492)
111:   3186.25   0.001691    8.55  0.000166  (-0.007603  0.010378 -0.000325)
112:   3192.37   0.003371   17.04  0.000330  (-0.005837 -0.017187 -0.000276)
113:   3192.96   0.001476    7.46  0.000144  (-0.003250  0.011558  0.000339)
114:   3197.91   0.002045   10.34  0.000200  (-0.006785 -0.012391  0.000016)
115:   3215.63   0.002335   11.80  0.000227  ( 0.014661 -0.003350  0.000649)
116:   3217.63   0.002277   11.51  0.000221  ( 0.014119 -0.004617  0.000458)

* The epsilon (eps) is given for a Dirac delta lineshape.
** The dipole moment derivative (T) already includes vibrational overlap.

The first frequency considered to be a vibration is 6
The total number of vibrations considered is 111


--------------------------
THERMOCHEMISTRY AT 298.15K
--------------------------

Temperature         ... 298.15 K
Pressure            ... 1.00 atm
Total Mass          ... 309.37 AMU

Throughout the following assumptions are being made:
  (1) The electronic state is orbitally nondegenerate
  (2) There are no thermally accessible electronically excited states
  (3) Hindered rotations indicated by low frequency modes are not
      treated as such but are treated as vibrations and this may
      cause some error
  (4) All equations used are the standard statistical mechanics
      equations for an ideal gas
  (5) All vibrations are strictly harmonic

freq.      20.73  E(vib)   ...       0.56 
freq.      36.53  E(vib)   ...       0.54 
freq.      54.02  E(vib)   ...       0.52 
freq.      62.48  E(vib)   ...       0.51 
freq.      67.36  E(vib)   ...       0.50 
freq.      89.94  E(vib)   ...       0.47 
freq.      99.66  E(vib)   ...       0.46 
freq.     116.59  E(vib)   ...       0.44 
freq.     143.19  E(vib)   ...       0.41 
freq.     157.12  E(vib)   ...       0.40 
freq.     201.98  E(vib)   ...       0.35 
freq.     210.80  E(vib)   ...       0.34 
freq.     222.94  E(vib)   ...       0.33 
freq.     245.42  E(vib)   ...       0.31 
freq.     266.13  E(vib)   ...       0.29 
freq.     270.67  E(vib)   ...       0.29 
freq.     297.03  E(vib)   ...       0.27 
freq.     322.68  E(vib)   ...       0.25 
freq.     369.34  E(vib)   ...       0.21 
freq.     400.05  E(vib)   ...       0.19 
freq.     420.66  E(vib)   ...       0.18 
freq.     452.09  E(vib)   ...       0.16 
freq.     478.14  E(vib)   ...       0.15 
freq.     494.26  E(vib)   ...       0.14 
freq.     506.11  E(vib)   ...       0.14 
freq.     523.03  E(vib)   ...       0.13 
freq.     528.12  E(vib)   ...       0.13 
freq.     543.80  E(vib)   ...       0.12 
freq.     561.54  E(vib)   ...       0.11 
freq.     566.31  E(vib)   ...       0.11 
freq.     580.06  E(vib)   ...       0.11 
freq.     615.26  E(vib)   ...       0.10 
freq.     630.46  E(vib)   ...       0.09 
freq.     677.00  E(vib)   ...       0.08 
freq.     702.37  E(vib)   ...       0.07 
freq.     719.10  E(vib)   ...       0.07 
freq.     756.15  E(vib)   ...       0.06 
freq.     761.14  E(vib)   ...       0.06 
freq.     781.26  E(vib)   ...       0.05 
freq.     815.13  E(vib)   ...       0.05 
freq.     817.78  E(vib)   ...       0.05 
freq.     831.73  E(vib)   ...       0.04 
freq.     852.19  E(vib)   ...       0.04 
freq.     857.00  E(vib)   ...       0.04 
freq.     876.77  E(vib)   ...       0.04 
freq.     884.74  E(vib)   ...       0.04 
freq.     887.91  E(vib)   ...       0.04 
freq.     940.69  E(vib)   ...       0.03 
freq.     947.60  E(vib)   ...       0.03 
freq.     983.98  E(vib)   ...       0.02 
freq.     989.25  E(vib)   ...       0.02 
freq.     993.37  E(vib)   ...       0.02 
freq.     998.61  E(vib)   ...       0.02 
freq.    1002.42  E(vib)   ...       0.02 
freq.    1012.33  E(vib)   ...       0.02 
freq.    1016.30  E(vib)   ...       0.02 
freq.    1039.32  E(vib)   ...       0.02 
freq.    1046.90  E(vib)   ...       0.02 
freq.    1120.94  E(vib)   ...       0.01 
freq.    1131.11  E(vib)   ...       0.01 
freq.    1169.61  E(vib)   ...       0.01 
freq.    1171.02  E(vib)   ...       0.01 
freq.    1180.79  E(vib)   ...       0.01 
freq.    1187.24  E(vib)   ...       0.01 
freq.    1200.22  E(vib)   ...       0.01 
freq.    1209.38  E(vib)   ...       0.01 
freq.    1241.26  E(vib)   ...       0.01 
freq.    1257.72  E(vib)   ...       0.01 
freq.    1265.29  E(vib)   ...       0.01 
freq.    1271.79  E(vib)   ...       0.01 
freq.    1279.34  E(vib)   ...       0.01 
freq.    1293.19  E(vib)   ...       0.01 
freq.    1308.97  E(vib)   ...       0.01 
freq.    1327.33  E(vib)   ...       0.01 
freq.    1338.45  E(vib)   ...       0.01 
freq.    1368.14  E(vib)   ...       0.01 
freq.    1370.82  E(vib)   ...       0.01 
freq.    1405.99  E(vib)   ...       0.00 
freq.    1407.12  E(vib)   ...       0.00 
freq.    1424.61  E(vib)   ...       0.00 
freq.    1440.95  E(vib)   ...       0.00 
freq.    1464.39  E(vib)   ...       0.00 
freq.    1466.17  E(vib)   ...       0.00 
freq.    1470.31  E(vib)   ...       0.00 
freq.    1475.07  E(vib)   ...       0.00 
freq.    1503.56  E(vib)   ...       0.00 
freq.    1535.80  E(vib)   ...       0.00 
freq.    1545.97  E(vib)   ...       0.00 
freq.    1574.38  E(vib)   ...       0.00 
freq.    1621.71  E(vib)   ...       0.00 
freq.    1637.98  E(vib)   ...       0.00 
freq.    1656.68  E(vib)   ...       0.00 
freq.    1663.38  E(vib)   ...       0.00 
freq.    1675.08  E(vib)   ...       0.00 
freq.    1717.22  E(vib)   ...       0.00 
freq.    2337.73  E(vib)   ...       0.00 
freq.    2995.95  E(vib)   ...       0.00 
freq.    3068.82  E(vib)   ...       0.00 
freq.    3133.81  E(vib)   ...       0.00 
freq.    3145.56  E(vib)   ...       0.00 
freq.    3171.14  E(vib)   ...       0.00 
freq.    3173.12  E(vib)   ...       0.00 
freq.    3174.37  E(vib)   ...       0.00 
freq.    3174.75  E(vib)   ...       0.00 
freq.    3178.01  E(vib)   ...       0.00 
freq.    3186.25  E(vib)   ...       0.00 
freq.    3192.37  E(vib)   ...       0.00 
freq.    3192.96  E(vib)   ...       0.00 
freq.    3197.91  E(vib)   ...       0.00 
freq.    3215.63  E(vib)   ...       0.00 
freq.    3217.63  E(vib)   ...       0.00 

------------
INNER ENERGY
------------

The inner energy is: U= E(el) + E(ZPE) + E(vib) + E(rot) + E(trans)
    E(el)   - is the total energy from the electronic structure calculation
              = E(kin-el) + E(nuc-el) + E(el-el) + E(nuc-nuc)
    E(ZPE)  - the the zero temperature vibrational energy from the frequency calculation
    E(vib)  - the the finite temperature correction to E(ZPE) due to population
              of excited vibrational states
    E(rot)  - is the rotational thermal energy
    E(trans)- is the translational thermal energy

Summary of contributions to the inner energy U:
Electronic energy                ...   -976.03478504 Eh
Zero point energy                ...      0.30500233 Eh     191.39 kcal/mol
Thermal vibrational correction   ...      0.01675195 Eh      10.51 kcal/mol
Thermal rotational correction    ...      0.00141627 Eh       0.89 kcal/mol
Thermal translational correction ...      0.00141627 Eh       0.89 kcal/mol
-----------------------------------------------------------------------
Total thermal energy                   -975.71019821 Eh


Summary of corrections to the electronic energy:
(perhaps to be used in another calculation)
Total thermal correction                  0.01958449 Eh      12.29 kcal/mol
Non-thermal (ZPE) correction              0.30500233 Eh     191.39 kcal/mol
-----------------------------------------------------------------------
Total correction                          0.32458682 Eh     203.68 kcal/mol


--------
ENTHALPY
--------

The enthalpy is H = U + kB*T
                kB is Boltzmann's constant
Total free energy                 ...   -975.71019821 Eh 
Thermal Enthalpy correction       ...      0.00094421 Eh       0.59 kcal/mol
-----------------------------------------------------------------------
Total Enthalpy                    ...   -975.70925401 Eh


Note: Only C1 symmetry has been detected, increase convergence thresholds 
      if your molecule has a higher symmetry. Symmetry factor of 1.0 is   
      used for the rotational entropy correction. 
 

Note: Rotational entropy computed according to Herzberg 
Infrared and Raman Spectra, Chapter V,1, Van Nostrand Reinhold, 1945 
Point Group:  C1, Symmetry Number:   1  
Rotational constants in cm-1:     0.025751     0.003247     0.002896 

Vibrational entropy computed according to the QRRHO of S. Grimme
Chem.Eur.J. 2012 18 9955


-------
ENTROPY
-------

The entropy contributions are T*S = T*(S(el)+S(vib)+S(rot)+S(trans))
     S(el)   - electronic entropy
     S(vib)  - vibrational entropy
     S(rot)  - rotational entropy
     S(trans)- translational entropy
The entropies will be listed as multiplied by the temperature to get
units of energy

Electronic entropy                ...      0.00000000 Eh      0.00 kcal/mol
Vibrational entropy               ...      0.02946292 Eh     18.49 kcal/mol
Rotational entropy                ...      0.01670258 Eh     10.48 kcal/mol
Translational entropy             ...      0.02047072 Eh     12.85 kcal/mol
-----------------------------------------------------------------------
Final entropy term                ...      0.06663622 Eh     41.81 kcal/mol

In case the symmetry of your molecule has not been determined correctly
or in case you have a reason to use a different symmetry number we print 
out the resulting rotational entropy values for sn=1,12 :
 --------------------------------------------------------
|  sn= 1 | S(rot)=       0.01670258 Eh     10.48 kcal/mol|
|  sn= 2 | S(rot)=       0.01604812 Eh     10.07 kcal/mol|
|  sn= 3 | S(rot)=       0.01566529 Eh      9.83 kcal/mol|
|  sn= 4 | S(rot)=       0.01539367 Eh      9.66 kcal/mol|
|  sn= 5 | S(rot)=       0.01518298 Eh      9.53 kcal/mol|
|  sn= 6 | S(rot)=       0.01501083 Eh      9.42 kcal/mol|
|  sn= 7 | S(rot)=       0.01486529 Eh      9.33 kcal/mol|
|  sn= 8 | S(rot)=       0.01473921 Eh      9.25 kcal/mol|
|  sn= 9 | S(rot)=       0.01462800 Eh      9.18 kcal/mol|
|  sn=10 | S(rot)=       0.01452852 Eh      9.12 kcal/mol|
|  sn=11 | S(rot)=       0.01443853 Eh      9.06 kcal/mol|
|  sn=12 | S(rot)=       0.01435638 Eh      9.01 kcal/mol|
 --------------------------------------------------------


-------------------
GIBBS FREE ENERGY
-------------------

The Gibbs free energy is G = H - T*S

Total enthalpy                    ...   -975.70925401 Eh 
Total entropy correction          ...     -0.06663622 Eh    -41.81 kcal/mol
-----------------------------------------------------------------------
Final Gibbs free energy         ...   -975.77589023 Eh

For completeness - the Gibbs free energy minus the electronic energy
G-E(el)                           ...      0.25889481 Eh    162.46 kcal/mol


Timings for individual modules:

Sum of individual times         ...     3136.181 sec (=  52.270 min)
GTO integral calculation        ...       52.704 sec (=   0.878 min)   1.7 %
SCF iterations                  ...     1234.885 sec (=  20.581 min)  39.4 %
SCF Gradient evaluation         ...      230.753 sec (=   3.846 min)   7.4 %
Geometry relaxation             ...       10.627 sec (=   0.177 min)   0.3 %
Analytical frequency calculation...     1607.212 sec (=  26.787 min)  51.2 %
                             ****ORCA TERMINATED NORMALLY****
TOTAL RUN TIME: 0 days 0 hours 52 minutes 35 seconds 90 msec
