Start Job  on nano05

                                 *****************
                                 * O   R   C   A *
                                 *****************

                                            #,                                       
                                            ###                                      
                                            ####                                     
                                            #####                                    
                                            ######                                   
                                           ########,                                 
                                     ,,################,,,,,                         
                               ,,#################################,,                 
                          ,,##########################################,,             
                       ,#########################################, ''#####,          
                    ,#############################################,,   '####,        
                  ,##################################################,,,,####,       
                ,###########''''           ''''###############################       
              ,#####''   ,,,,##########,,,,          '''####'''          '####       
            ,##' ,,,,###########################,,,                        '##       
           ' ,,###''''                  '''############,,,                           
         ,,##''                                '''############,,,,        ,,,,,,###''
      ,#''                                            '''#######################'''  
     '                                                          ''''####''''         
             ,#######,   #######,   ,#######,      ##                                
            ,#'     '#,  ##    ##  ,#'     '#,    #''#        ######   ,####,        
            ##       ##  ##   ,#'  ##            #'  '#       #        #'  '#        
            ##       ##  #######   ##           ,######,      #####,   #    #        
            '#,     ,#'  ##    ##  '#,     ,#' ,#      #,         ##   #,  ,#        
             '#######'   ##     ##  '#######'  #'      '#     #####' # '####'        



                  #######################################################
                  #                        -***-                        #
                  #          Department of theory and spectroscopy      #
                  #    Directorship and core code : Frank Neese         #
                  #        Max Planck Institute fuer Kohlenforschung    #
                  #                Kaiser Wilhelm Platz 1               #
                  #                 D-45470 Muelheim/Ruhr               #
                  #                      Germany                        #
                  #                                                     #
                  #                  All rights reserved                #
                  #                        -***-                        #
                  #######################################################


                         Program Version 5.0.4 -  RELEASE  -


 With contributions from (in alphabetic order):
   Daniel Aravena         : Magnetic Suceptibility
   Michael Atanasov       : Ab Initio Ligand Field Theory (pilot matlab implementation)
   Alexander A. Auer      : GIAO ZORA, VPT2 properties, NMR spectrum
   Ute Becker             : Parallelization
   Giovanni Bistoni       : ED, misc. LED, open-shell LED, HFLD
   Martin Brehm           : Molecular dynamics
   Dmytro Bykov           : SCF Hessian
   Vijay G. Chilkuri      : MRCI spin determinant printing, contributions to CSF-ICE
   Dipayan Datta          : RHF DLPNO-CCSD density
   Achintya Kumar Dutta   : EOM-CC, STEOM-CC
   Dmitry Ganyushin       : Spin-Orbit,Spin-Spin,Magnetic field MRCI
   Miquel Garcia          : C-PCM and meta-GGA Hessian, CC/C-PCM, Gaussian charge scheme
   Yang Guo               : DLPNO-NEVPT2, F12-NEVPT2, CIM, IAO-localization
   Andreas Hansen         : Spin unrestricted coupled pair/coupled cluster methods
   Benjamin Helmich-Paris : MC-RPA, TRAH-SCF, COSX integrals
   Lee Huntington         : MR-EOM, pCC
   Robert Izsak           : Overlap fitted RIJCOSX, COSX-SCS-MP3, EOM
   Marcus Kettner         : VPT2
   Christian Kollmar      : KDIIS, OOCD, Brueckner-CCSD(T), CCSD density, CASPT2, CASPT2-K
   Simone Kossmann        : Meta GGA functionals, TD-DFT gradient, OOMP2, MP2 Hessian
   Martin Krupicka        : Initial AUTO-CI
   Lucas Lang             : DCDCAS
   Marvin Lechner         : AUTO-CI (C++ implementation), FIC-MRCC
   Dagmar Lenk            : GEPOL surface, SMD
   Dimitrios Liakos       : Extrapolation schemes; Compound Job, initial MDCI parallelization
   Dimitrios Manganas     : Further ROCIS development; embedding schemes
   Dimitrios Pantazis     : SARC Basis sets
   Anastasios Papadopoulos: AUTO-CI, single reference methods and gradients
   Taras Petrenko         : DFT Hessian,TD-DFT gradient, ASA, ECA, R-Raman, ABS, FL, XAS/XES, NRVS
   Peter Pinski           : DLPNO-MP2, DLPNO-MP2 Gradient
   Christoph Reimann      : Effective Core Potentials
   Marius Retegan         : Local ZFS, SOC
   Christoph Riplinger    : Optimizer, TS searches, QM/MM, DLPNO-CCSD(T), (RO)-DLPNO pert. Triples
   Tobias Risthaus        : Range-separated hybrids, TD-DFT gradient, RPA, STAB
   Michael Roemelt        : Original ROCIS implementation
   Masaaki Saitow         : Open-shell DLPNO-CCSD energy and density
   Barbara Sandhoefer     : DKH picture change effects
   Avijit Sen             : IP-ROCIS
   Kantharuban Sivalingam : CASSCF convergence, NEVPT2, FIC-MRCI
   Bernardo de Souza      : ESD, SOC TD-DFT
   Georgi Stoychev        : AutoAux, RI-MP2 NMR, DLPNO-MP2 response
   Willem Van den Heuvel  : Paramagnetic NMR
   Boris Wezisla          : Elementary symmetry handling
   Frank Wennmohs         : Technical directorship


 We gratefully acknowledge several colleagues who have allowed us to
 interface, adapt or use parts of their codes:
   Stefan Grimme, W. Hujo, H. Kruse, P. Pracht,  : VdW corrections, initial TS optimization,
                  C. Bannwarth, S. Ehlert          DFT functionals, gCP, sTDA/sTD-DF
   Ed Valeev, F. Pavosevic, A. Kumar             : LibInt (2-el integral package), F12 methods
   Garnet Chan, S. Sharma, J. Yang, R. Olivares  : DMRG
   Ulf Ekstrom                                   : XCFun DFT Library
   Mihaly Kallay                                 : mrcc  (arbitrary order and MRCC methods)
   Jiri Pittner, Ondrej Demel                    : Mk-CCSD
   Frank Weinhold                                : gennbo (NPA and NBO analysis)
   Christopher J. Cramer and Donald G. Truhlar   : smd solvation model
   Lars Goerigk                                  : TD-DFT with DH, B97 family of functionals
   V. Asgeirsson, H. Jonsson                     : NEB implementation
   FAccTs GmbH                                   : IRC, NEB, NEB-TS, DLPNO-Multilevel, CI-OPT
                                                   MM, QMMM, 2- and 3-layer-ONIOM, Crystal-QMMM,
                                                   LR-CPCM, SF, NACMEs, symmetry and pop. for TD-DFT,
                                                   nearIR, NL-DFT gradient (VV10), updates on ESD,
                                                   ML-optimized integration grids
   S Lehtola, MJT Oliveira, MAL Marques          : LibXC Library
   Liviu Ungur et al                             : ANISO software


 Your calculation uses the libint2 library for the computation of 2-el integrals
 For citations please refer to: http://libint.valeyev.net

 Your ORCA version has been built with support for libXC version: 5.1.0
 For citations please refer to: https://tddft.org/programs/libxc/

 This ORCA versions uses:
   CBLAS   interface :  Fast vector & matrix operations
   LAPACKE interface :  Fast linear algebra routines
   SCALAPACK package :  Parallel linear algebra routines
   Shared memory     :  Shared parallel matrices
   BLAS/LAPACK       :  OpenBLAS 0.3.15  USE64BITINT DYNAMIC_ARCH NO_AFFINITY Zen SINGLE_THREADED
        Core in use  :  Zen
   Copyright (c) 2011-2014, The OpenBLAS Project


================================================================================

----- Orbital basis set information -----
Your calculation utilizes the basis: def2-SVP
   F. Weigend and R. Ahlrichs, Phys. Chem. Chem. Phys. 7, 3297 (2005).

----- AuxJ basis set information -----
Your calculation utilizes the auxiliary basis: def2/J
   F. Weigend, Phys. Chem. Chem. Phys. 8, 1057 (2006).

================================================================================
                                        WARNINGS
                       Please study these warnings very carefully!
================================================================================


WARNING: Geometry Optimization
  ===> : Switching off AutoStart
         For restart on a previous wavefunction, please use MOREAD

INFO   : the flag for use of the SHARK integral package has been found!

================================================================================
                                       INPUT FILE
================================================================================
NAME = NC_OMe.inp
|  1> ! B3LYP def2-SVP Opt PAL8 FREQ 
|  2> #defgrid3 slowconv VeryTightSCF
|  3> *xyz 0 1
|  4>   C   -7.188239    3.332064   -0.274933
|  5>   C   -5.977912    3.923851   -0.249593
|  6>   C   -4.843943    3.220205   -0.172070
|  7>   C   -4.889457    1.882792   -0.117152
|  8>   C   -3.744739    1.191413   -0.040072
|  9>   C   -3.765750   -0.144845    0.015405
| 10>   C   -4.916422   -0.847138   -0.003152
| 11>   C   -4.942157   -2.207610    0.052846
| 12>   C   -6.151829   -2.800466    0.028471
| 13>   C   -7.285953   -2.096887   -0.047219
| 14>   C   -7.240618   -0.759403   -0.101967
| 15>   C   -8.385317   -0.068007   -0.178212
| 16>   C   -8.364324    1.268238   -0.234411
| 17>   C   -7.214019    1.971389   -0.217338
| 18>   C   -6.071415    1.240058   -0.138857
| 19>   C   -6.059061   -0.115968   -0.080845
| 20>   C   -8.293539    4.112529   -0.355262
| 21>   C   -3.836584   -2.987050    0.129021
| 22>   C   -8.383968    5.454669   -0.417755
| 23>   C   -3.740123   -4.329079    0.190773
| 24>   C   -9.556151    6.048954   -0.493000
| 25>   O   -2.517579   -4.939945    0.281546
| 26>   C   -2.484651   -6.077900    1.113688
| 27>   N  -10.586822    6.573043   -0.559209
| 28>   H   -5.837612    5.014171   -0.290418
| 29>   H   -3.881494    3.760979   -0.154979
| 30>   H   -2.769212    1.708751   -0.021047
| 31>   H   -2.767224   -0.599650    0.076738
| 32>   H   -6.290672   -3.891074    0.067398
| 33>   H   -8.248298   -2.637808   -0.064137
| 34>   H   -9.360801   -0.585489   -0.196174
| 35>   H   -9.363461    1.721796   -0.294690
| 36>   H   -9.289930    3.646530   -0.376873
| 37>   H   -2.836943   -2.529569    0.144708
| 38>   H   -7.516419    6.128907   -0.410868
| 39>   H   -4.609824   -5.001881    0.206088
| 40>   H   -1.435961   -6.448913    1.151691
| 41>   H   -2.811899   -5.804769    2.142163
| 42>   H   -3.134107   -6.879472    0.695687
| 43> **                         ****END OF INPUT****
================================================================================

                       *****************************
                       * Geometry Optimization Run *
                       *****************************

Geometry optimization settings:
Update method            Update   .... BFGS
Choice of coordinates    CoordSys .... Z-matrix Internals
Initial Hessian          InHess   .... Almoef's Model

Convergence Tolerances:
Energy Change            TolE     ....  5.0000e-06 Eh
Max. Gradient            TolMAXG  ....  3.0000e-04 Eh/bohr
RMS Gradient             TolRMSG  ....  1.0000e-04 Eh/bohr
Max. Displacement        TolMAXD  ....  4.0000e-03 bohr
RMS Displacement         TolRMSD  ....  2.0000e-03 bohr
Strict Convergence                ....  False
------------------------------------------------------------------------------
                        ORCA OPTIMIZATION COORDINATE SETUP
------------------------------------------------------------------------------

The optimization will be done in new redundant internal coordinates
Making redundant internal coordinates   ...  (new redundants) done
Evaluating the initial hessian          ...  (Almloef) done
Evaluating the coordinates              ...  done
Calculating the B-matrix                .... done
Calculating the G-matrix                .... done
Diagonalizing the G-matrix              .... done
Small eigenvalue found = 3.425e-03
Small eigenvalue found = 9.671e-03
Small eigenvalue found = 1.010e-02
Small eigenvalue found = 2.517e-02
The first mode is                       ....   97
The number of degrees of freedom        ....  111

    -----------------------------------------------------------------
                    Redundant Internal Coordinates


    -----------------------------------------------------------------
         Definition                    Initial Value    Approx d2E/dq
    -----------------------------------------------------------------
      1. B(C   1,C   0)                  1.3475         0.730384   
      2. B(C   2,C   1)                  1.3368         0.759676   
      3. B(C   3,C   2)                  1.3393         0.752671   
      4. B(C   4,C   3)                  1.3395         0.752089   
      5. B(C   5,C   4)                  1.3376         0.757497   
      6. B(C   6,C   5)                  1.3482         0.728534   
      7. B(C   7,C   6)                  1.3619         0.692824   
      8. B(C   8,C   7)                  1.3474         0.730749   
      9. B(C   9,C   8)                  1.3368         0.759700   
     10. B(C  10,C   9)                  1.3394         0.752511   
     11. B(C  11,C  10)                  1.3395         0.752242   
     12. B(C  12,C  11)                  1.3376         0.757450   
     13. B(C  13,C  12)                  1.3483         0.728228   
     14. B(C  13,C   0)                  1.3621         0.692136   
     15. B(C  14,C   3)                  1.3456         0.735525   
     16. B(C  14,C  13)                  1.3589         0.700475   
     17. B(C  15,C  14)                  1.3573         0.704488   
     18. B(C  15,C  10)                  1.3456         0.735597   
     19. B(C  15,C   6)                  1.3588         0.700738   
     20. B(C  16,C   0)                  1.3555         0.709330   
     21. B(C  17,C   7)                  1.3549         0.710913   
     22. B(C  18,C  16)                  1.3466         0.732701   
     23. B(C  19,C  17)                  1.3469         0.731964   
     24. B(C  20,C  18)                  1.3164         0.818839   
     25. B(O  21,C  19)                  1.3697         0.602979   
     26. B(C  22,O  21)                  1.4101         0.519695   
     27. B(N  23,C  20)                  1.1582         1.311477   
     28. B(H  24,C   1)                  1.1001         0.347025   
     29. B(H  25,C   2)                  1.1041         0.341922   
     30. B(H  26,C   4)                  1.1044         0.341572   
     31. B(H  27,C   5)                  1.0989         0.348469   
     32. B(H  28,C   8)                  1.1001         0.346985   
     33. B(H  29,C   9)                  1.1041         0.341949   
     34. B(H  30,C  11)                  1.1044         0.341557   
     35. B(H  31,C  12)                  1.0989         0.348492   
     36. B(H  32,C  16)                  1.1002         0.346870   
     37. B(H  33,C  17)                  1.0995         0.347798   
     38. B(H  34,C  18)                  1.0988         0.348689   
     39. B(H  35,C  19)                  1.0997         0.347531   
     40. B(H  36,C  22)                  1.1130         0.330882   
     41. B(H  37,C  22)                  1.1133         0.330551   
     42. B(H  38,C  22)                  1.1131         0.330778   
     43. A(C   1,C   0,C  13)          117.0590         0.456136   
     44. A(C   1,C   0,C  16)          118.7295         0.458181   
     45. A(C  13,C   0,C  16)          124.2115         0.453714   
     46. A(C   2,C   1,H  24)          114.5615         0.363025   
     47. A(C   0,C   1,H  24)          123.3081         0.360597   
     48. A(C   0,C   1,C   2)          122.1304         0.463955   
     49. A(C   1,C   2,C   3)          119.9453         0.466515   
     50. A(C   3,C   2,H  25)          121.2036         0.361536   
     51. A(C   1,C   2,H  25)          118.8511         0.362108   
     52. A(C   2,C   3,C  14)          120.4092         0.463765   
     53. A(C   4,C   3,C  14)          120.3341         0.463699   
     54. A(C   2,C   3,C   4)          119.2567         0.465658   
     55. A(C   3,C   4,H  26)          120.9356         0.361425   
     56. A(C   5,C   4,H  26)          118.7600         0.361867   
     57. A(C   3,C   4,C   5)          120.3043         0.466203   
     58. A(C   6,C   5,H  27)          124.1038         0.360696   
     59. A(C   4,C   5,C   6)          122.2247         0.463497   
     60. A(C   4,C   5,H  27)          113.6716         0.363104   
     61. A(C   5,C   6,C   7)          122.4081         0.456008   
     62. A(C   7,C   6,C  15)          121.6022         0.452791   
     63. A(C   5,C   6,C  15)          115.9897         0.456953   
     64. A(C   6,C   7,C   8)          117.1154         0.456260   
     65. A(C   8,C   7,C  17)          118.7182         0.458409   
     66. A(C   6,C   7,C  17)          124.1664         0.453980   
     67. A(C   9,C   8,H  28)          114.6270         0.363020   
     68. A(C   7,C   8,H  28)          123.2908         0.360620   
     69. A(C   7,C   8,C   9)          122.0822         0.464000   
     70. A(C  10,C   9,H  29)          121.2059         0.361527   
     71. A(C   8,C   9,H  29)          118.8484         0.362114   
     72. A(C   8,C   9,C  10)          119.9457         0.466500   
     73. A(C  11,C  10,C  15)          120.2978         0.463724   
     74. A(C   9,C  10,C  15)          120.4375         0.463755   
     75. A(C   9,C  10,C  11)          119.2647         0.465657   
     76. A(C  12,C  11,H  30)          118.7687         0.361860   
     77. A(C  10,C  11,C  12)          120.3069         0.466215   
     78. A(C  10,C  11,H  30)          120.9244         0.361434   
     79. A(C  11,C  12,H  31)          113.6001         0.363104   
     80. A(C  11,C  12,C  13)          122.2654         0.463456   
     81. A(C  13,C  12,H  31)          124.1345         0.360674   
     82. A(C   0,C  13,C  12)          122.4498         0.455891   
     83. A(C  12,C  13,C  14)          115.9400         0.456886   
     84. A(C   0,C  13,C  14)          121.6102         0.452678   
     85. A(C  13,C  14,C  15)          123.2159         0.454137   
     86. A(C   3,C  14,C  15)          117.9383         0.458195   
     87. A(C   3,C  14,C  13)          118.8458         0.457718   
     88. A(C  10,C  15,C  14)          117.9740         0.458203   
     89. A(C   6,C  15,C  14)          123.2089         0.454168   
     90. A(C   6,C  15,C  10)          118.8171         0.457757   
     91. A(C  18,C  16,H  32)          111.1261         0.360764   
     92. A(C   0,C  16,H  32)          119.7218         0.358777   
     93. A(C   0,C  16,C  18)          129.1521         0.458446   
     94. A(C  19,C  17,H  33)          110.4151         0.360867   
     95. A(C   7,C  17,H  33)          120.2218         0.359077   
     96. A(C   7,C  17,C  19)          129.3629         0.458548   
     97. A(C  20,C  18,H  34)          115.2399         0.368018   
     98. A(C  16,C  18,H  34)          123.9364         0.361086   
     99. A(C  16,C  18,C  20)          120.8236         0.470648   
    100. A(O  21,C  19,H  35)          115.6026         0.347010   
    101. A(C  17,C  19,H  35)          123.6146         0.360819   
    102. A(C  17,C  19,O  21)          120.7531         0.442099   
    103. L(C  18,C  20,N  23,C  16, 2) 179.9980         0.520817   
    104. L(C  18,C  20,N  23,C  16, 1) 180.0684         0.520817   
    105. A(C  19,O  21,C  22)          114.8257         0.413072   
    106. A(H  37,C  22,H  38)          110.6142         0.283196   
    107. A(H  36,C  22,H  38)          108.8147         0.283240   
    108. A(O  21,C  22,H  38)          110.2363         0.335700   
    109. A(H  36,C  22,H  37)          109.0980         0.283210   
    110. A(O  21,C  22,H  37)          109.8955         0.335662   
    111. A(O  21,C  22,H  36)          108.1282         0.335718   
    112. D(H  24,C   1,C   0,C  16)      0.0294         0.037854   
    113. D(H  24,C   1,C   0,C  13)   -179.9814         0.037854   
    114. D(C   2,C   1,C   0,C  16)   -179.9653         0.037854   
    115. D(C   2,C   1,C   0,C  13)      0.0239         0.037854   
    116. D(H  25,C   2,C   1,C   0)    179.9965         0.041260   
    117. D(C   3,C   2,C   1,H  24)   -179.9779         0.041260   
    118. D(C   3,C   2,C   1,C   0)      0.0173         0.041260   
    119. D(H  25,C   2,C   1,H  24)      0.0014         0.041260   
    120. D(C  14,C   3,C   2,H  25)    179.9905         0.040429   
    121. D(C  14,C   3,C   2,C   1)     -0.0307         0.040429   
    122. D(C   4,C   3,C   2,H  25)      0.0030         0.040429   
    123. D(C   4,C   3,C   2,C   1)    179.9817         0.040429   
    124. D(H  26,C   4,C   3,C   2)      0.0208         0.040360   
    125. D(C   5,C   4,C   3,C   2)   -179.9795         0.040360   
    126. D(C   5,C   4,C   3,C  14)      0.0329         0.040360   
    127. D(H  26,C   4,C   3,C  14)   -179.9668         0.040360   
    128. D(H  27,C   5,C   4,H  26)      0.0196         0.041000   
    129. D(C   6,C   5,C   4,C   3)      0.0003         0.041000   
    130. D(C   6,C   5,C   4,H  26)    180.0000         0.041000   
    131. D(H  27,C   5,C   4,C   3)   -179.9801         0.041000   
    132. D(C  15,C   6,C   5,H  27)    179.9322         0.037645   
    133. D(C   7,C   6,C   5,H  27)     -0.0368         0.037645   
    134. D(C   7,C   6,C   5,C   4)    179.9850         0.037645   
    135. D(C  15,C   6,C   5,C   4)     -0.0461         0.037645   
    136. D(C  17,C   7,C   6,C  15)    179.8971         0.033749   
    137. D(C  17,C   7,C   6,C   5)     -0.1357         0.033749   
    138. D(C   8,C   7,C   6,C  15)     -0.0261         0.033749   
    139. D(C   8,C   7,C   6,C   5)    179.9411         0.033749   
    140. D(H  28,C   8,C   7,C   6)    179.9283         0.037896   
    141. D(C   9,C   8,C   7,C  17)   -179.9261         0.037896   
    142. D(C   9,C   8,C   7,C   6)      0.0015         0.037896   
    143. D(H  28,C   8,C   7,C  17)      0.0008         0.037896   
    144. D(H  29,C   9,C   8,H  28)      0.0416         0.041263   
    145. D(H  29,C   9,C   8,C   7)    179.9744         0.041263   
    146. D(C  10,C   9,C   8,H  28)   -179.9090         0.041263   
    147. D(C  10,C   9,C   8,C   7)      0.0237         0.041263   
    148. D(C  15,C  10,C   9,H  29)   -179.9741         0.040410   
    149. D(C  15,C  10,C   9,C   8)     -0.0246         0.040410   
    150. D(C  11,C  10,C   9,H  29)      0.0191         0.040410   
    151. D(C  11,C  10,C   9,C   8)    179.9686         0.040410   
    152. D(H  30,C  11,C  10,C  15)   -179.9965         0.040378   
    153. D(H  30,C  11,C  10,C   9)      0.0104         0.040378   
    154. D(C  12,C  11,C  10,C  15)      0.0181         0.040378   
    155. D(C  12,C  11,C  10,C   9)   -179.9750         0.040378   
    156. D(H  31,C  12,C  11,H  30)      0.0068         0.040995   
    157. D(H  31,C  12,C  11,C  10)    179.9926         0.040995   
    158. D(C  13,C  12,C  11,H  30)   -179.9930         0.040995   
    159. D(C  13,C  12,C  11,C  10)     -0.0072         0.040995   
    160. D(C  14,C  13,C  12,H  31)    179.9782         0.037611   
    161. D(C   0,C  13,C  12,H  31)     -0.0271         0.037611   
    162. D(C   0,C  13,C  12,C  11)    179.9727         0.037611   
    163. D(C  14,C  13,C   0,C  16)    179.9356         0.033676   
    164. D(C  14,C  13,C   0,C   1)     -0.0530         0.033676   
    165. D(C  14,C  13,C  12,C  11)     -0.0220         0.037611   
    166. D(C  12,C  13,C   0,C  16)     -0.0588         0.033676   
    167. D(C  12,C  13,C   0,C   1)    179.9526         0.033676   
    168. D(C   3,C  14,C  13,C  12)   -179.9646         0.034561   
    169. D(C   3,C  14,C  13,C   0)      0.0407         0.034561   
    170. D(C  15,C  14,C   3,C   4)     -0.0171         0.038439   
    171. D(C  15,C  14,C   3,C   2)    179.9954         0.038439   
    172. D(C  13,C  14,C   3,C   4)    179.9896         0.038439   
    173. D(C  15,C  14,C  13,C   0)   -179.9522         0.034561   
    174. D(C  13,C  14,C   3,C   2)      0.0022         0.038439   
    175. D(C  15,C  14,C  13,C  12)      0.0426         0.034561   
    176. D(C  10,C  15,C  14,C  13)     -0.0329         0.034993   
    177. D(C   6,C  15,C  14,C  13)    179.9606         0.034993   
    178. D(C   6,C  15,C  14,C   3)     -0.0323         0.034993   
    179. D(C  14,C  15,C  10,C  11)      0.0013         0.038447   
    180. D(C  14,C  15,C  10,C   9)    179.9943         0.038447   
    181. D(C   6,C  15,C  10,C  11)   -179.9925         0.038447   
    182. D(C   6,C  15,C  10,C   9)      0.0005         0.038447   
    183. D(C  14,C  15,C   6,C   7)   -179.9681         0.034590   
    184. D(C  14,C  15,C   6,C   5)      0.0626         0.034590   
    185. D(C  10,C  15,C  14,C   3)    179.9742         0.034993   
    186. D(C  10,C  15,C   6,C   7)      0.0254         0.034590   
    187. D(C  10,C  15,C   6,C   5)   -179.9439         0.034590   
    188. D(H  32,C  16,C   0,C  13)      0.0217         0.035517   
    189. D(H  32,C  16,C   0,C   1)   -179.9900         0.035517   
    190. D(C  18,C  16,C   0,C  13)   -179.9567         0.035517   
    191. D(C  18,C  16,C   0,C   1)      0.0317         0.035517   
    192. D(H  33,C  17,C   7,C   8)    179.6520         0.035690   
    193. D(H  33,C  17,C   7,C   6)     -0.2701         0.035690   
    194. D(C  19,C  17,C   7,C   8)     -0.1722         0.035690   
    195. D(C  19,C  17,C   7,C   6)    179.9057         0.035690   
    196. D(H  34,C  18,C  16,H  32)   -179.9881         0.038117   
    197. D(H  34,C  18,C  16,C   0)     -0.0082         0.038117   
    198. D(C  20,C  18,C  16,H  32)      0.0067         0.038117   
    199. D(C  20,C  18,C  16,C   0)    179.9865         0.038117   
    200. D(H  35,C  19,C  17,H  33)    178.9367         0.038033   
    201. D(H  35,C  19,C  17,C   7)     -1.2254         0.038033   
    202. D(O  21,C  19,C  17,H  33)      1.0075         0.038033   
    203. D(O  21,C  19,C  17,C   7)   -179.1546         0.038033   
    204. D(C  22,O  21,C  19,H  35)    -35.6710         0.026572   
    205. D(C  22,O  21,C  19,C  17)    142.4168         0.026572   
    206. D(H  38,C  22,O  21,C  19)     64.2672         0.021412   
    207. D(H  37,C  22,O  21,C  19)    -57.9052         0.021412   
    208. D(H  36,C  22,O  21,C  19)   -176.8923         0.021412   
    -----------------------------------------------------------------

Number of atoms                         .... 39
Number of degrees of freedom            .... 208

         *************************************************************
         *                GEOMETRY OPTIMIZATION CYCLE   1            *
         *************************************************************
---------------------------------
CARTESIAN COORDINATES (ANGSTROEM)
---------------------------------
  C     -7.188239    3.332064   -0.274933
  C     -5.977912    3.923851   -0.249593
  C     -4.843943    3.220205   -0.172070
  C     -4.889457    1.882792   -0.117152
  C     -3.744739    1.191413   -0.040072
  C     -3.765750   -0.144845    0.015405
  C     -4.916422   -0.847138   -0.003152
  C     -4.942157   -2.207610    0.052846
  C     -6.151829   -2.800466    0.028471
  C     -7.285953   -2.096887   -0.047219
  C     -7.240618   -0.759403   -0.101967
  C     -8.385317   -0.068007   -0.178212
  C     -8.364324    1.268238   -0.234411
  C     -7.214019    1.971389   -0.217338
  C     -6.071415    1.240058   -0.138857
  C     -6.059061   -0.115968   -0.080845
  C     -8.293539    4.112529   -0.355262
  C     -3.836584   -2.987050    0.129021
  C     -8.383968    5.454669   -0.417755
  C     -3.740123   -4.329079    0.190773
  C     -9.556151    6.048954   -0.493000
  O     -2.517579   -4.939945    0.281546
  C     -2.484651   -6.077900    1.113688
  N    -10.586822    6.573043   -0.559209
  H     -5.837612    5.014171   -0.290418
  H     -3.881494    3.760979   -0.154979
  H     -2.769212    1.708751   -0.021047
  H     -2.767224   -0.599650    0.076738
  H     -6.290672   -3.891074    0.067398
  H     -8.248298   -2.637808   -0.064137
  H     -9.360801   -0.585489   -0.196174
  H     -9.363461    1.721796   -0.294690
  H     -9.289930    3.646530   -0.376873
  H     -2.836943   -2.529569    0.144708
  H     -7.516419    6.128907   -0.410868
  H     -4.609824   -5.001881    0.206088
  H     -1.435961   -6.448913    1.151691
  H     -2.811899   -5.804769    2.142163
  H     -3.134107   -6.879472    0.695687

----------------------------
CARTESIAN COORDINATES (A.U.)
----------------------------
  NO LB      ZA    FRAG     MASS         X           Y           Z
   0 C     6.0000    0    12.011  -13.583803    6.296688   -0.519548
   1 C     6.0000    0    12.011  -11.296617    7.415004   -0.471662
   2 C     6.0000    0    12.011   -9.153726    6.085306   -0.325165
   3 C     6.0000    0    12.011   -9.239735    3.557961   -0.221385
   4 C     6.0000    0    12.011   -7.076531    2.251444   -0.075725
   5 C     6.0000    0    12.011   -7.116236   -0.273717    0.029111
   6 C     6.0000    0    12.011   -9.290691   -1.600859   -0.005956
   7 C     6.0000    0    12.011   -9.339323   -4.171778    0.099864
   8 C     6.0000    0    12.011  -11.625272   -5.292114    0.053802
   9 C     6.0000    0    12.011  -13.768456   -3.962542   -0.089231
  10 C     6.0000    0    12.011  -13.682785   -1.435064   -0.192690
  11 C     6.0000    0    12.011  -15.845953   -0.128515   -0.336772
  12 C     6.0000    0    12.011  -15.806282    2.396622   -0.442973
  13 C     6.0000    0    12.011  -13.632520    3.725385   -0.410709
  14 C     6.0000    0    12.011  -11.473312    2.343370   -0.262402
  15 C     6.0000    0    12.011  -11.449966   -0.219148   -0.152775
  16 C     6.0000    0    12.011  -15.672517    7.771554   -0.671348
  17 C     6.0000    0    12.011   -7.250093   -5.644706    0.243814
  18 C     6.0000    0    12.011  -15.843403   10.307831   -0.789443
  19 C     6.0000    0    12.011   -7.067808   -8.180774    0.360509
  20 C     6.0000    0    12.011  -18.058508   11.430866   -0.931635
  21 O     8.0000    0    15.999   -4.757535   -9.335143    0.532045
  22 C     6.0000    0    12.011   -4.695310  -11.485566    2.104565
  23 N     7.0000    0    14.007  -20.006194   12.421251   -1.056752
  24 H     1.0000    0     1.008  -11.031488    9.475410   -0.548810
  25 H     1.0000    0     1.008   -7.334961    7.107220   -0.292868
  26 H     1.0000    0     1.008   -5.233052    3.229071   -0.039773
  27 H     1.0000    0     1.008   -5.229296   -1.133174    0.145014
  28 H     1.0000    0     1.008  -11.887647   -7.353064    0.127364
  29 H     1.0000    0     1.008  -15.587024   -4.984735   -0.121201
  30 H     1.0000    0     1.008  -17.689350   -1.106414   -0.370715
  31 H     1.0000    0     1.008  -17.694377    3.253723   -0.556883
  32 H     1.0000    0     1.008  -17.555424    6.890943   -0.712187
  33 H     1.0000    0     1.008   -5.361045   -4.780193    0.273458
  34 H     1.0000    0     1.008  -14.203973   11.581956   -0.776428
  35 H     1.0000    0     1.008   -8.711305   -9.452185    0.389450
  36 H     1.0000    0     1.008   -2.713573  -12.186679    2.176381
  37 H     1.0000    0     1.008   -5.313719  -10.969424    4.048101
  38 H     1.0000    0     1.008   -5.922604  -13.000318    1.314658

--------------------------------
INTERNAL COORDINATES (ANGSTROEM)
--------------------------------
 C      0   0   0     0.000000000000     0.00000000     0.00000000
 C      1   0   0     1.347495979919     0.00000000     0.00000000
 C      2   1   0     1.336792131113   122.13038922     0.00000000
 C      3   2   1     1.339313646421   119.94529847     0.00000000
 C      4   3   2     1.339524373636   119.25673515   179.98173667
 C      5   4   3     1.337574148305   120.30431229   180.02046310
 C      6   5   4     1.348186141333   122.22466118     0.00000000
 C      7   6   5     1.361867148078   122.40807018   179.98495502
 C      8   7   6     1.347359909209   117.11540354   179.94110030
 C      9   8   7     1.336783315544   122.08216337     0.00000000
 C     10   9   8     1.339371515296   119.94566954     0.02369654
 C     11  10   9     1.339469122243   119.26468102   179.96856484
 C     12  11  10     1.337591018838   120.30688093   180.02498147
 C     13  12  11     1.348300563359   122.26542482     0.00000000
 C      4   3   2     1.345586420690   120.40919711   359.96929972
 C     11  10   9     1.345559988391   120.43749647   359.97543592
 C      1   2   3     1.355458023867   118.72951180   180.03472089
 C      8   7   6     1.354850915250   124.16639790   359.86434248
 C     17   1   2     1.346633787891   129.15213288     0.03165234
 C     18   8   7     1.346907521275   129.36287673   179.90565543
 C     19  17   1     1.316377399054   120.82363473   179.98654248
 O     20  18   8     1.369675450397   120.75311715   180.84543964
 C     22  20  18     1.410136923626   114.82574264   142.41675580
 N     21  19  17     1.158160447366   179.93164293   179.18126006
 H      2   1   3     1.100067485668   123.30809353   179.99468274
 H      3   2   1     1.104099949714   118.85110947   179.99651382
 H      5   4   3     1.104379230427   120.93564377     0.00000000
 H      6   5   4     1.098937440253   113.67157445   180.01991798
 H      9   8   7     1.100099313536   123.29080655   179.92834873
 H     10   9   8     1.104078641216   118.84836402   179.97437789
 H     12  11  10     1.104390912686   120.92436810     0.00000000
 H     13  12  11     1.098919088001   113.60010978   179.99257161
 H     17   1   2     1.100189587391   119.72180684   180.01000249
 H     18   8   7     1.099462175889   120.22180330   359.72993399
 H     19  17   1     1.098765479442   123.93643402     0.00000000
 H     20  18   8     1.099671273531   123.61460085   358.77464943
 H     23  22  20     1.113034406601   108.12823011   183.10770883
 H     23  22  20     1.113307065589   109.89548744   302.09484702
 H     23  22  20     1.113119761356   110.23631738    64.26722838

---------------------------
INTERNAL COORDINATES (A.U.)
---------------------------
 C      0   0   0     0.000000000000     0.00000000     0.00000000
 C      1   0   0     2.546398368607     0.00000000     0.00000000
 C      2   1   0     2.526171025785   122.13038922     0.00000000
 C      3   2   1     2.530935999159   119.94529847     0.00000000
 C      4   3   2     2.531334215885   119.25673515   179.98173667
 C      5   4   3     2.527648824110   120.30431229   180.02046310
 C      6   5   4     2.547702584667   122.22466118     0.00000000
 C      7   6   5     2.573555940651   122.40807018   179.98495502
 C      8   7   6     2.546141232231   117.11540354   179.94110030
 C      9   8   7     2.526154366774   122.08216337     0.00000000
 C     10   9   8     2.531045355484   119.94566954     0.02369654
 C     11  10   9     2.531229805883   119.26468102   179.96856484
 C     12  11  10     2.527680704796   120.30688093   180.02498147
 C     13  12  11     2.547918810961   122.26542482     0.00000000
 C      4   3   2     2.542789824627   120.40919711   359.96929972
 C     11  10   9     2.542739874821   120.43749647   359.97543592
 C      1   2   3     2.561444451135   118.72951180   180.03472089
 C      8   7   6     2.560297182115   124.16639790   359.86434248
 C     17   1   2     2.544769061799   129.15213288     0.03165234
 C     18   8   7     2.545286342928   129.36287673   179.90565543
 C     19  17   1     2.487592773095   120.82363473   179.98654248
 O     20  18   8     2.588311493606   120.75311715   180.84543964
 C     22  20  18     2.664772596983   114.82574264   142.41675580
 N     21  19  17     2.188606064661   179.93164293   179.18126006
 H      2   1   3     2.078826276745   123.30809353   179.99468274
 H      3   2   1     2.086446529435   118.85110947   179.99651382
 H      5   4   3     2.086974293497   120.93564377     0.00000000
 H      6   5   4     2.076690800391   113.67157445   180.01991798
 H      9   8   7     2.078886422697   123.29080655   179.92834873
 H     10   9   8     2.086406262211   118.84836402   179.97437789
 H     12  11  10     2.086996369768   120.92436810     0.00000000
 H     13  12  11     2.076656119661   113.60010978   179.99257161
 H     17   1   2     2.079057015560   119.72180684   180.01000249
 H     18   8   7     2.077682407036   120.22180330   359.72993399
 H     19  17   1     2.076365841553   123.93643402     0.00000000
 H     20  18   8     2.078077544315   123.61460085   358.77464943
 H     23  22  20     2.103330206108   108.12823011   183.10770883
 H     23  22  20     2.103845456922   109.89548744   302.09484702
 H     23  22  20     2.103491503218   110.23631738    64.26722838

---------------------
BASIS SET INFORMATION
---------------------
There are 4 groups of distinct atoms

 Group   1 Type C   : 7s4p1d contracted to 3s2p1d pattern {511/31/1}
 Group   2 Type O   : 7s4p1d contracted to 3s2p1d pattern {511/31/1}
 Group   3 Type N   : 7s4p1d contracted to 3s2p1d pattern {511/31/1}
 Group   4 Type H   : 4s1p contracted to 2s1p pattern {31/1}

Atom   0C    basis set group =>   1
Atom   1C    basis set group =>   1
Atom   2C    basis set group =>   1
Atom   3C    basis set group =>   1
Atom   4C    basis set group =>   1
Atom   5C    basis set group =>   1
Atom   6C    basis set group =>   1
Atom   7C    basis set group =>   1
Atom   8C    basis set group =>   1
Atom   9C    basis set group =>   1
Atom  10C    basis set group =>   1
Atom  11C    basis set group =>   1
Atom  12C    basis set group =>   1
Atom  13C    basis set group =>   1
Atom  14C    basis set group =>   1
Atom  15C    basis set group =>   1
Atom  16C    basis set group =>   1
Atom  17C    basis set group =>   1
Atom  18C    basis set group =>   1
Atom  19C    basis set group =>   1
Atom  20C    basis set group =>   1
Atom  21O    basis set group =>   2
Atom  22C    basis set group =>   1
Atom  23N    basis set group =>   3
Atom  24H    basis set group =>   4
Atom  25H    basis set group =>   4
Atom  26H    basis set group =>   4
Atom  27H    basis set group =>   4
Atom  28H    basis set group =>   4
Atom  29H    basis set group =>   4
Atom  30H    basis set group =>   4
Atom  31H    basis set group =>   4
Atom  32H    basis set group =>   4
Atom  33H    basis set group =>   4
Atom  34H    basis set group =>   4
Atom  35H    basis set group =>   4
Atom  36H    basis set group =>   4
Atom  37H    basis set group =>   4
Atom  38H    basis set group =>   4
---------------------------------
AUXILIARY/J BASIS SET INFORMATION
---------------------------------
There are 4 groups of distinct atoms

 Group   1 Type C   : 12s5p4d2f1g contracted to 6s4p3d1f1g pattern {711111/2111/211/2/1}
 Group   2 Type O   : 12s5p4d2f1g contracted to 6s4p3d1f1g pattern {711111/2111/211/2/1}
 Group   3 Type N   : 12s5p4d2f1g contracted to 6s4p3d1f1g pattern {711111/2111/211/2/1}
 Group   4 Type H   : 5s2p1d contracted to 3s1p1d pattern {311/2/1}

Atom   0C    basis set group =>   1
Atom   1C    basis set group =>   1
Atom   2C    basis set group =>   1
Atom   3C    basis set group =>   1
Atom   4C    basis set group =>   1
Atom   5C    basis set group =>   1
Atom   6C    basis set group =>   1
Atom   7C    basis set group =>   1
Atom   8C    basis set group =>   1
Atom   9C    basis set group =>   1
Atom  10C    basis set group =>   1
Atom  11C    basis set group =>   1
Atom  12C    basis set group =>   1
Atom  13C    basis set group =>   1
Atom  14C    basis set group =>   1
Atom  15C    basis set group =>   1
Atom  16C    basis set group =>   1
Atom  17C    basis set group =>   1
Atom  18C    basis set group =>   1
Atom  19C    basis set group =>   1
Atom  20C    basis set group =>   1
Atom  21O    basis set group =>   2
Atom  22C    basis set group =>   1
Atom  23N    basis set group =>   3
Atom  24H    basis set group =>   4
Atom  25H    basis set group =>   4
Atom  26H    basis set group =>   4
Atom  27H    basis set group =>   4
Atom  28H    basis set group =>   4
Atom  29H    basis set group =>   4
Atom  30H    basis set group =>   4
Atom  31H    basis set group =>   4
Atom  32H    basis set group =>   4
Atom  33H    basis set group =>   4
Atom  34H    basis set group =>   4
Atom  35H    basis set group =>   4
Atom  36H    basis set group =>   4
Atom  37H    basis set group =>   4
Atom  38H    basis set group =>   4


           ************************************************************
           *        Program running with 8 parallel MPI-processes     *
           *              working on a common directory               *
           ************************************************************
------------------------------------------------------------------------------
                           ORCA GTO INTEGRAL CALCULATION
                           -- RI-GTO INTEGRALS CHOSEN --
------------------------------------------------------------------------------
------------------------------------------------------------------------------
                   ___                                                        
                  /   \      - P O W E R E D   B Y -                         
                 /     \                                                     
                 |  |  |   _    _      __       _____    __    __             
                 |  |  |  | |  | |    /  \     |  _  \  |  |  /  |          
                  \  \/   | |  | |   /    \    | | | |  |  | /  /          
                 / \  \   | |__| |  /  /\  \   | |_| |  |  |/  /          
                |  |  |   |  __  | /  /__\  \  |    /   |      \           
                |  |  |   | |  | | |   __   |  |    \   |  |\   \          
                \     /   | |  | | |  |  |  |  | |\  \  |  | \   \       
                 \___/    |_|  |_| |__|  |__|  |_| \__\ |__|  \__/        
                                                                              
                      - O R C A' S   B I G   F R I E N D -                    
                                      &                                       
                       - I N T E G R A L  F E E D E R -                       
                                                                              
 v1 FN, 2020, v2 2021                                                         
------------------------------------------------------------------------------


Reading SHARK input file NC_OMe.SHARKINP.tmp ... ok
----------------------
SHARK INTEGRAL PACKAGE
----------------------

Number of atoms                             ...     39
Number of basis functions                   ...    411
Number of shells                            ...    189
Maximum angular momentum                    ...      2
Integral batch strategy                     ... SHARK/LIBINT Hybrid
RI-J (if used) integral strategy            ... SPLIT-RIJ (Revised 2003 algorithm where possible)
Printlevel                                  ...      1
Contraction scheme used                     ... SEGMENTED contraction
Coulomb Range Separation                    ... NOT USED
Exchange Range Separation                   ... NOT USED
Finite Nucleus Model                        ... NOT USED
Auxiliary Coulomb fitting basis             ... AVAILABLE
   # of basis functions in Aux-J            ...   1341
   # of shells in Aux-J                     ...    435
   Maximum angular momentum in Aux-J        ...      4
Auxiliary J/K fitting basis                 ... NOT available
Auxiliary Correlation fitting basis         ... NOT available
Auxiliary 'external' fitting basis          ... NOT available
Integral threshold                          ...     2.500000e-11
Primitive cut-off                           ...     2.500000e-12
Primitive pair pre-selection threshold      ...     2.500000e-12

Calculating pre-screening integrals         ... done (  0.0 sec) Dimension = 189
Organizing shell pair data                  ... done (  3.3 sec)
Shell pair information
Total number of shell pairs                 ...     17955
Shell pairs after pre-screening             ...     12272
Total number of primitive shell pairs       ...     66423
Primitive shell pairs kept                  ...     29204
          la=0 lb=0:   3637 shell pairs
          la=1 lb=0:   4504 shell pairs
          la=1 lb=1:   1444 shell pairs
          la=2 lb=0:   1530 shell pairs
          la=2 lb=1:    980 shell pairs
          la=2 lb=2:    177 shell pairs

Calculating one electron integrals          ... done (  0.0 sec)
Calculating RI/J V-Matrix + Cholesky decomp.... done (  1.8 sec)
Calculating Nuclear repulsion               ... done (  0.0 sec) ENN=   1810.565414840569 Eh

SHARK setup successfully completed in   7.0 seconds

Maximum memory used throughout the entire GTOINT-calculation: 22.7 MB


           ************************************************************
           *        Program running with 8 parallel MPI-processes     *
           *              working on a common directory               *
           ************************************************************
-------------------------------------------------------------------------------
                                 ORCA SCF
-------------------------------------------------------------------------------

------------
SCF SETTINGS
------------
Hamiltonian:
 Density Functional     Method          .... DFT(GTOs)
 Exchange Functional    Exchange        .... B88
   X-Alpha parameter    XAlpha          ....  0.666667
   Becke's b parameter  XBeta           ....  0.004200
 Correlation Functional Correlation     .... LYP
 LDA part of GGA corr.  LDAOpt          .... VWN-5
 Gradients option       PostSCFGGA      .... off
 Hybrid DFT is turned on
   Fraction HF Exchange ScalHFX         ....  0.200000
   Scaling of DF-GGA-X  ScalDFX         ....  0.720000
   Scaling of DF-GGA-C  ScalDFC         ....  0.810000
   Scaling of DF-LDA-C  ScalLDAC        ....  1.000000
   Perturbative correction              ....  0.000000
   Density functional embedding theory  .... OFF
   NL short-range parameter             ....  4.800000
 RI-approximation to the Coulomb term is turned on
   Number of AuxJ basis functions       .... 1341
   RIJ-COSX (HFX calculated with COS-X)).... on


General Settings:
 Integral files         IntName         .... NC_OMe
 Hartree-Fock type      HFTyp           .... RHF
 Total Charge           Charge          ....    0
 Multiplicity           Mult            ....    1
 Number of Electrons    NEL             ....  162
 Basis Dimension        Dim             ....  411
 Nuclear Repulsion      ENuc            ....   1810.5654148406 Eh

Convergence Acceleration:
 DIIS                   CNVDIIS         .... on
   Start iteration      DIISMaxIt       ....    12
   Startup error        DIISStart       ....  0.200000
   # of expansion vecs  DIISMaxEq       ....     5
   Bias factor          DIISBfac        ....   1.050
   Max. coefficient     DIISMaxC        ....  10.000
 Trust-Rad. Augm. Hess. CNVTRAH         .... auto
   Auto Start mean grad. ratio tolernc. ....  1.125000
   Auto Start start iteration           ....    20
   Auto Start num. interpolation iter.  ....    10
   Max. Number of Micro iterations      ....    16
   Max. Number of Macro iterations      .... Maxiter - #DIIS iter
   Number of Davidson start vectors     ....     2
   Converg. threshold I  (grad. norm)   ....   1.000e-05
   Converg. threshold II (energy diff.) ....   1.000e-08
   Grad. Scal. Fac. for Micro threshold ....   0.100
   Minimum threshold for Micro iter.    ....   0.010
   NR start threshold (gradient norm)   ....   0.001
   Initial trust radius                 ....   0.400
   Minimum AH scaling param. (alpha)    ....   1.000
   Maximum AH scaling param. (alpha)    .... 1000.000
   Orbital update algorithm             .... Taylor
   White noise on init. David. guess    .... on
   Maximum white noise                  ....   0.010
   Quad. conv. algorithm                .... NR
 SOSCF                  CNVSOSCF        .... on
   Start iteration      SOSCFMaxIt      ....   150
   Startup grad/error   SOSCFStart      ....  0.003300
 Level Shifting         CNVShift        .... on
   Level shift para.    LevelShift      ....    0.2500
   Turn off err/grad.   ShiftErr        ....    0.0010
 Zerner damping         CNVZerner       .... off
 Static damping         CNVDamp         .... on
   Fraction old density DampFac         ....    0.7000
   Max. Damping (<1)    DampMax         ....    0.9800
   Min. Damping (>=0)   DampMin         ....    0.0000
   Turn off err/grad.   DampErr         ....    0.1000
 Fernandez-Rico         CNVRico         .... off

SCF Procedure:
 Maximum # iterations   MaxIter         ....   125
 SCF integral mode      SCFMode         .... Direct
   Integral package                     .... SHARK and LIBINT hybrid scheme
 Reset frequency        DirectResetFreq ....    20
 Integral Threshold     Thresh          ....  2.500e-11 Eh
 Primitive CutOff       TCut            ....  2.500e-12 Eh

Convergence Tolerance:
 Convergence Check Mode ConvCheckMode   .... Total+1el-Energy
 Convergence forced     ConvForced      .... 0
 Energy Change          TolE            ....  1.000e-08 Eh
 1-El. energy change                    ....  1.000e-05 Eh
 Orbital Gradient       TolG            ....  1.000e-05
 Orbital Rotation angle TolX            ....  1.000e-05
 DIIS Error             TolErr          ....  5.000e-07


Diagonalization of the overlap matrix:
Smallest eigenvalue                        ... 1.181e-04
Time for diagonalization                   ...    0.028 sec
Threshold for overlap eigenvalues          ... 1.000e-08
Number of eigenvalues below threshold      ... 0
Time for construction of square roots      ...    0.029 sec
Total time needed                          ...    0.058 sec

Time for model grid setup =    0.322 sec

------------------------------
INITIAL GUESS: MODEL POTENTIAL
------------------------------
Loading Hartree-Fock densities                     ... done
Calculating cut-offs                               ... done
Initializing the effective Hamiltonian             ... done
Setting up the integral package (SHARK)            ... done
Starting the Coulomb interaction                   ... done (   0.2 sec)
Reading the grid                                   ... done
Mapping shells                                     ... done
Starting the XC term evaluation                    ... done (   0.1 sec)
  promolecular density results
     # of electrons  =    161.984554968
     EX              =   -132.822854526
     EC              =     -5.536081910
     EX+EC           =   -138.358936436
Transforming the Hamiltonian                       ... done (   0.0 sec)
Diagonalizing the Hamiltonian                      ... done (   0.0 sec)
Back transforming the eigenvectors                 ... done (   0.0 sec)
Now organizing SCF variables                       ... done
                      ------------------
                      INITIAL GUESS DONE (   0.8 sec)
                      ------------------
-------------------
DFT GRID GENERATION
-------------------

General Integration Accuracy     IntAcc      ... 4.388
Radial Grid Type                 RadialGrid  ... OptM3 with GC (2021)
Angular Grid (max. ang.)         AngularGrid ... 4 (Lebedev-302)
Angular grid pruning method      GridPruning ... 4 (adaptive)
Weight generation scheme         WeightScheme... Becke
Basis function cutoff            BFCut       ... 1.0000e-11
Integration weight cutoff        WCut        ... 1.0000e-14
Angular grids for H and He will be reduced by one unit
Partially contracted basis set               ... off
Rotationally invariant grid construction     ... off

Total number of grid points                  ...   190496
Total number of batches                      ...     2995
Average number of points per batch           ...       63
Average number of grid points per atom       ...     4885
Time for grid setup =    3.317 sec

--------------------
COSX GRID GENERATION
--------------------

GRIDX 1
-------
General Integration Accuracy     IntAcc      ... 3.816
Radial Grid Type                 RadialGrid  ... OptM3 with GC (2021)
Angular Grid (max. ang.)         AngularGrid ... 1 (Lebedev-50)
Angular grid pruning method      GridPruning ... 4 (adaptive)
Weight generation scheme         WeightScheme... Becke
Basis function cutoff            BFCut       ... 1.0000e-11
Integration weight cutoff        WCut        ... 1.0000e-14
Angular grids for H and He will be reduced by one unit
Partially contracted basis set               ... on
Rotationally invariant grid construction     ... off

Total number of grid points                  ...    24252
Total number of batches                      ...      397
Average number of points per batch           ...       61
Average number of grid points per atom       ...      622
UseSFitting                                  ... on

GRIDX 2
-------
General Integration Accuracy     IntAcc      ... 4.020
Radial Grid Type                 RadialGrid  ... OptM3 with GC (2021)
Angular Grid (max. ang.)         AngularGrid ... 2 (Lebedev-110)
Angular grid pruning method      GridPruning ... 4 (adaptive)
Weight generation scheme         WeightScheme... Becke
Basis function cutoff            BFCut       ... 1.0000e-11
Integration weight cutoff        WCut        ... 1.0000e-14
Angular grids for H and He will be reduced by one unit
Partially contracted basis set               ... on
Rotationally invariant grid construction     ... off

Total number of grid points                  ...    52996
Total number of batches                      ...      847
Average number of points per batch           ...       62
Average number of grid points per atom       ...     1359
UseSFitting                                  ... on

GRIDX 3
-------
General Integration Accuracy     IntAcc      ... 4.338
Radial Grid Type                 RadialGrid  ... OptM3 with GC (2021)
Angular Grid (max. ang.)         AngularGrid ... 3 (Lebedev-194)
Angular grid pruning method      GridPruning ... 4 (adaptive)
Weight generation scheme         WeightScheme... Becke
Basis function cutoff            BFCut       ... 1.0000e-11
Integration weight cutoff        WCut        ... 1.0000e-14
Angular grids for H and He will be reduced by one unit
Partially contracted basis set               ... on
Rotationally invariant grid construction     ... off

Total number of grid points                  ...   116313
Total number of batches                      ...     1834
Average number of points per batch           ...       63
Average number of grid points per atom       ...     2982
UseSFitting                                  ... on

Time for X-Grid setup             =    9.014 sec

--------------
SCF ITERATIONS
--------------
ITER       Energy         Delta-E        Max-DP      RMS-DP      [F,P]     Damp
               ***  Starting incremental Fock matrix formation  ***
  0   -975.3614125613   0.000000000000 0.19897025  0.00350926  0.2043975 0.7000
  1   -975.5997542369  -0.238341675570 0.12170930  0.00234254  0.0877989 0.7000
                               ***Turning on DIIS***
  2   -975.7042637250  -0.104509488077 0.22599325  0.00462825  0.0387019 0.0000
  3   -975.8608512292  -0.156587504222 0.03709591  0.00103948  0.0488013 0.0000
  4   -975.8960193007  -0.035168071566 0.02000410  0.00029113  0.0244738 0.0000
  5   -975.8985180482  -0.002498747466 0.00800113  0.00012741  0.0105260 0.0000
                      *** Initiating the SOSCF procedure ***
                           *** Shutting down DIIS ***
                      *** Re-Reading the Fockian *** 
                      *** Removing any level shift *** 
ITER      Energy       Delta-E        Grad      Rot      Max-DP    RMS-DP
  6   -975.89875522  -0.0002371674  0.000784  0.000784  0.002211  0.000043
               *** Restarting incremental Fock matrix formation ***
  7   -975.89866960   0.0000856157  0.000367  0.002506  0.002139  0.000044
  8   -975.89867416  -0.0000045634  0.000374  0.001773  0.001192  0.000026
  9   -975.89867720  -0.0000030397  0.000248  0.001017  0.000667  0.000019
 10   -975.89867844  -0.0000012355  0.000103  0.000551  0.000425  0.000008
 11   -975.89867864  -0.0000002002  0.000119  0.000605  0.000273  0.000007
 12   -975.89867897  -0.0000003290  0.000050  0.000203  0.000150  0.000003
 13   -975.89867899  -0.0000000260  0.000047  0.000122  0.000091  0.000003
 14   -975.89867907  -0.0000000726  0.000019  0.000045  0.000062  0.000001
 15   -975.89867907  -0.0000000042  0.000014  0.000050  0.000033  0.000001
 16   -975.89867906   0.0000000121  0.000004  0.000016  0.000033  0.000001
 17   -975.89867904   0.0000000213  0.000004  0.000012  0.000017  0.000000
                  ***Gradient check signals convergence***
              ***Rediagonalizing the Fockian in SOSCF/NRSCF***

               *****************************************************
               *                     SUCCESS                       *
               *           SCF CONVERGED AFTER  18 CYCLES          *
               *****************************************************

Old exchange energy                            =    -26.966720580 Eh
New exchange energy                            =    -26.966757749 Eh
Exchange energy change after final integration =     -0.000037169 Eh
Total energy after final integration           =   -975.898716233 Eh
Final COS-X integration done in                =    10.036 sec

----------------
TOTAL SCF ENERGY
----------------

Total Energy       :         -975.89871623 Eh          -26555.55413 eV

Components:
Nuclear Repulsion  :         1810.56541484 Eh           49267.98967 eV
Electronic Energy  :        -2786.46413107 Eh          -75823.54380 eV
One Electron Energy:        -4916.21254853 Eh         -133776.94453 eV
Two Electron Energy:         2129.74841746 Eh           57953.40073 eV
Max COSX asymmetry :            0.00000277 Eh               0.00008 eV

Virial components:
Potential Energy   :        -1945.89742750 Eh          -52950.56096 eV
Kinetic Energy     :          969.99871127 Eh           26395.00683 eV
Virial Ratio       :            2.00608249


DFT components:
N(Alpha)           :       81.000129710128 electrons
N(Beta)            :       81.000129710128 electrons
N(Total)           :      162.000259420255 electrons
E(X)               :     -107.083730436238 Eh       
E(C)               :       -6.518061982697 Eh       
E(XC)              :     -113.601792418935 Eh       
DFET-embed. en.    :        0.000000000000 Eh       

---------------
SCF CONVERGENCE
---------------

  Last Energy change         ...   -2.6530e-08  Tolerance :   1.0000e-08
  Last MAX-Density change    ...    3.1086e-15  Tolerance :   1.0000e-07
  Last RMS-Density change    ...    4.0478e-17  Tolerance :   5.0000e-09
  Last Orbital Gradient      ...    8.2273e-07  Tolerance :   1.0000e-05
  Last Orbital Rotation      ...    2.8059e-06  Tolerance :   1.0000e-05

             **** THE GBW FILE WAS UPDATED (NC_OMe.gbw) ****
             **** DENSITY NC_OMe.scfp WAS UPDATED ****
             **** ENERGY FILE WAS UPDATED (NC_OMe.en.tmp) ****
             **** THE GBW FILE WAS UPDATED (NC_OMe.gbw) ****
             **** DENSITY NC_OMe.scfp WAS UPDATED ****
----------------
ORBITAL ENERGIES
----------------

  NO   OCC          E(Eh)            E(eV) 
   0   2.0000     -19.169705      -521.6342 
   1   2.0000     -14.301958      -389.1761 
   2   2.0000     -10.255027      -279.0535 
   3   2.0000     -10.252331      -278.9801 
   4   2.0000     -10.206500      -277.7330 
   5   2.0000     -10.203537      -277.6524 
   6   2.0000     -10.198982      -277.5284 
   7   2.0000     -10.190862      -277.3074 
   8   2.0000     -10.190000      -277.2840 
   9   2.0000     -10.187024      -277.2030 
  10   2.0000     -10.186337      -277.1843 
  11   2.0000     -10.185999      -277.1751 
  12   2.0000     -10.185001      -277.1480 
  13   2.0000     -10.184614      -277.1374 
  14   2.0000     -10.184477      -277.1337 
  15   2.0000     -10.183663      -277.1116 
  16   2.0000     -10.183515      -277.1075 
  17   2.0000     -10.182953      -277.0922 
  18   2.0000     -10.182795      -277.0879 
  19   2.0000     -10.182165      -277.0708 
  20   2.0000     -10.181980      -277.0658 
  21   2.0000     -10.181700      -277.0581 
  22   2.0000     -10.180371      -277.0220 
  23   2.0000     -10.175695      -276.8947 
  24   2.0000      -1.061635       -28.8886 
  25   2.0000      -0.939520       -25.5656 
  26   2.0000      -0.898046       -24.4371 
  27   2.0000      -0.882499       -24.0140 
  28   2.0000      -0.867248       -23.5990 
  29   2.0000      -0.849721       -23.1221 
  30   2.0000      -0.811624       -22.0854 
  31   2.0000      -0.805750       -21.9256 
  32   2.0000      -0.775443       -21.1009 
  33   2.0000      -0.762004       -20.7352 
  34   2.0000      -0.749189       -20.3865 
  35   2.0000      -0.734168       -19.9777 
  36   2.0000      -0.694401       -18.8956 
  37   2.0000      -0.675342       -18.3770 
  38   2.0000      -0.655919       -17.8485 
  39   2.0000      -0.646350       -17.5881 
  40   2.0000      -0.633086       -17.2271 
  41   2.0000      -0.610074       -16.6010 
  42   2.0000      -0.586773       -15.9669 
  43   2.0000      -0.563229       -15.3262 
  44   2.0000      -0.552713       -15.0401 
  45   2.0000      -0.548100       -14.9146 
  46   2.0000      -0.523900       -14.2560 
  47   2.0000      -0.520709       -14.1692 
  48   2.0000      -0.513263       -13.9666 
  49   2.0000      -0.504624       -13.7315 
  50   2.0000      -0.484515       -13.1843 
  51   2.0000      -0.476499       -12.9662 
  52   2.0000      -0.468875       -12.7588 
  53   2.0000      -0.459832       -12.5127 
  54   2.0000      -0.458864       -12.4863 
  55   2.0000      -0.452800       -12.3213 
  56   2.0000      -0.442779       -12.0486 
  57   2.0000      -0.441926       -12.0254 
  58   2.0000      -0.422034       -11.4841 
  59   2.0000      -0.414265       -11.2727 
  60   2.0000      -0.411209       -11.1896 
  61   2.0000      -0.406656       -11.0657 
  62   2.0000      -0.396805       -10.7976 
  63   2.0000      -0.389077       -10.5873 
  64   2.0000      -0.382494       -10.4082 
  65   2.0000      -0.382134       -10.3984 
  66   2.0000      -0.377002       -10.2588 
  67   2.0000      -0.365143        -9.9360 
  68   2.0000      -0.358944        -9.7674 
  69   2.0000      -0.344844        -9.3837 
  70   2.0000      -0.340665        -9.2700 
  71   2.0000      -0.338957        -9.2235 
  72   2.0000      -0.329417        -8.9639 
  73   2.0000      -0.322134        -8.7657 
  74   2.0000      -0.311874        -8.4865 
  75   2.0000      -0.310400        -8.4464 
  76   2.0000      -0.286650        -7.8001 
  77   2.0000      -0.272804        -7.4234 
  78   2.0000      -0.247538        -6.7359 
  79   2.0000      -0.238286        -6.4841 
  80   2.0000      -0.191504        -5.2111 
  81   0.0000      -0.090855        -2.4723 
  82   0.0000      -0.045041        -1.2256 
  83   0.0000      -0.032879        -0.8947 
  84   0.0000      -0.008685        -0.2363 
  85   0.0000       0.016699         0.4544 
  86   0.0000       0.040211         1.0942 
  87   0.0000       0.043460         1.1826 
  88   0.0000       0.050220         1.3666 
  89   0.0000       0.059316         1.6141 
  90   0.0000       0.062636         1.7044 
  91   0.0000       0.070243         1.9114 
  92   0.0000       0.082098         2.2340 
  93   0.0000       0.089678         2.4403 
  94   0.0000       0.095236         2.5915 
  95   0.0000       0.106588         2.9004 
  96   0.0000       0.111758         3.0411 
  97   0.0000       0.116259         3.1636 
  98   0.0000       0.118814         3.2331 
  99   0.0000       0.126755         3.4492 
 100   0.0000       0.127876         3.4797 
 101   0.0000       0.132266         3.5991 
 102   0.0000       0.148444         4.0394 
 103   0.0000       0.168397         4.5823 
 104   0.0000       0.176595         4.8054 
 105   0.0000       0.192894         5.2489 
 106   0.0000       0.201474         5.4824 
 107   0.0000       0.210175         5.7192 
 108   0.0000       0.224826         6.1178 
 109   0.0000       0.233173         6.3450 
 110   0.0000       0.236932         6.4473 
 111   0.0000       0.247865         6.7448 
 112   0.0000       0.255345         6.9483 
 113   0.0000       0.267540         7.2801 
 114   0.0000       0.276156         7.5146 
 115   0.0000       0.280644         7.6367 
 116   0.0000       0.281959         7.6725 
 117   0.0000       0.287866         7.8332 
 118   0.0000       0.289649         7.8818 
 119   0.0000       0.296463         8.0672 
 120   0.0000       0.315765         8.5924 
 121   0.0000       0.318132         8.6568 
 122   0.0000       0.327397         8.9089 
 123   0.0000       0.340236         9.2583 
 124   0.0000       0.340877         9.2757 
 125   0.0000       0.345901         9.4125 
 126   0.0000       0.353900         9.6301 
 127   0.0000       0.367211         9.9923 
 128   0.0000       0.370610        10.0848 
 129   0.0000       0.375420        10.2157 
 130   0.0000       0.386218        10.5095 
 131   0.0000       0.401014        10.9121 
 132   0.0000       0.410598        11.1730 
 133   0.0000       0.417513        11.3611 
 134   0.0000       0.421603        11.4724 
 135   0.0000       0.425721        11.5845 
 136   0.0000       0.432447        11.7675 
 137   0.0000       0.436209        11.8699 
 138   0.0000       0.442573        12.0430 
 139   0.0000       0.447810        12.1855 
 140   0.0000       0.452895        12.3239 
 141   0.0000       0.454764        12.3748 
 142   0.0000       0.462583        12.5875 
 143   0.0000       0.464446        12.6382 
 144   0.0000       0.468629        12.7520 
 145   0.0000       0.479080        13.0364 
 146   0.0000       0.484667        13.1884 
 147   0.0000       0.489225        13.3125 
 148   0.0000       0.493498        13.4288 
 149   0.0000       0.497858        13.5474 
 150   0.0000       0.502984        13.6869 
 151   0.0000       0.508131        13.8270 
 152   0.0000       0.523261        14.2387 
 153   0.0000       0.527314        14.3490 
 154   0.0000       0.534825        14.5533 
 155   0.0000       0.536369        14.5953 
 156   0.0000       0.543551        14.7908 
 157   0.0000       0.550122        14.9696 
 158   0.0000       0.550977        14.9929 
 159   0.0000       0.565276        15.3819 
 160   0.0000       0.570904        15.5351 
 161   0.0000       0.582288        15.8449 
 162   0.0000       0.587814        15.9952 
 163   0.0000       0.593271        16.1437 
 164   0.0000       0.597180        16.2501 
 165   0.0000       0.606739        16.5102 
 166   0.0000       0.610049        16.6003 
 167   0.0000       0.616047        16.7635 
 168   0.0000       0.624380        16.9902 
 169   0.0000       0.630569        17.1587 
 170   0.0000       0.632063        17.1993 
 171   0.0000       0.640403        17.4263 
 172   0.0000       0.642433        17.4815 
 173   0.0000       0.646432        17.5903 
 174   0.0000       0.647696        17.6247 
 175   0.0000       0.650234        17.6938 
 176   0.0000       0.656555        17.8658 
 177   0.0000       0.662899        18.0384 
 178   0.0000       0.668793        18.1988 
 179   0.0000       0.675321        18.3764 
 180   0.0000       0.677386        18.4326 
 181   0.0000       0.682739        18.5783 
 182   0.0000       0.690362        18.7857 
 183   0.0000       0.691080        18.8052 
 184   0.0000       0.699863        19.0442 
 185   0.0000       0.706661        19.2292 
 186   0.0000       0.720815        19.6144 
 187   0.0000       0.731372        19.9016 
 188   0.0000       0.739018        20.1097 
 189   0.0000       0.752390        20.4736 
 190   0.0000       0.752801        20.4848 
 191   0.0000       0.761230        20.7141 
 192   0.0000       0.765578        20.8324 
 193   0.0000       0.772895        21.0315 
 194   0.0000       0.787573        21.4309 
 195   0.0000       0.807023        21.9602 
 196   0.0000       0.810230        22.0475 
 197   0.0000       0.813047        22.1241 
 198   0.0000       0.830102        22.5882 
 199   0.0000       0.840106        22.8605 
 200   0.0000       0.849915        23.1274 
 201   0.0000       0.855089        23.2681 
 202   0.0000       0.863912        23.5082 
 203   0.0000       0.879439        23.9308 
 204   0.0000       0.881846        23.9962 
 205   0.0000       0.887895        24.1608 
 206   0.0000       0.897595        24.4248 
 207   0.0000       0.900951        24.5161 
 208   0.0000       0.914686        24.8899 
 209   0.0000       0.918230        24.9863 
 210   0.0000       0.936576        25.4855 
 211   0.0000       0.942301        25.6413 
 212   0.0000       0.951648        25.8956 
 213   0.0000       0.959105        26.0986 
 214   0.0000       0.972518        26.4636 
 215   0.0000       0.977881        26.6095 
 216   0.0000       1.023010        27.8375 
 217   0.0000       1.030376        28.0380 
 218   0.0000       1.049862        28.5682 
 219   0.0000       1.075918        29.2772 
 220   0.0000       1.099081        29.9075 
 221   0.0000       1.108385        30.1607 
 222   0.0000       1.113305        30.2946 
 223   0.0000       1.130162        30.7533 
 224   0.0000       1.138783        30.9879 
 225   0.0000       1.153254        31.3816 
 226   0.0000       1.160473        31.5781 
 227   0.0000       1.177562        32.0431 
 228   0.0000       1.179212        32.0880 
 229   0.0000       1.184901        32.2428 
 230   0.0000       1.202029        32.7089 
 231   0.0000       1.206502        32.8306 
 232   0.0000       1.213359        33.0172 
 233   0.0000       1.219426        33.1823 
 234   0.0000       1.228045        33.4168 
 235   0.0000       1.235325        33.6149 
 236   0.0000       1.240027        33.7429 
 237   0.0000       1.242116        33.7997 
 238   0.0000       1.248365        33.9698 
 239   0.0000       1.252666        34.0868 
 240   0.0000       1.258640        34.2493 
 241   0.0000       1.267886        34.5009 
 242   0.0000       1.276849        34.7448 
 243   0.0000       1.283332        34.9213 
 244   0.0000       1.291834        35.1526 
 245   0.0000       1.300954        35.4007 
 246   0.0000       1.312133        35.7050 
 247   0.0000       1.321557        35.9614 
 248   0.0000       1.324533        36.0424 
 249   0.0000       1.341626        36.5075 
 250   0.0000       1.356696        36.9176 
 251   0.0000       1.365624        37.1605 
 252   0.0000       1.366034        37.1717 
 253   0.0000       1.372299        37.3422 
 254   0.0000       1.374048        37.3897 
 255   0.0000       1.376310        37.4513 
 256   0.0000       1.390945        37.8496 
 257   0.0000       1.393489        37.9188 
 258   0.0000       1.417946        38.5843 
 259   0.0000       1.465185        39.8697 
 260   0.0000       1.468870        39.9700 
 261   0.0000       1.491304        40.5804 
 262   0.0000       1.512950        41.1695 
 263   0.0000       1.520672        41.3796 
 264   0.0000       1.543496        42.0007 
 265   0.0000       1.557915        42.3930 
 266   0.0000       1.623075        44.1661 
 267   0.0000       1.635103        44.4934 
 268   0.0000       1.649249        44.8783 
 269   0.0000       1.657130        45.0928 
 270   0.0000       1.673882        45.5486 
 271   0.0000       1.681654        45.7601 
 272   0.0000       1.684089        45.8264 
 273   0.0000       1.686448        45.8906 
 274   0.0000       1.703457        46.3534 
 275   0.0000       1.710132        46.5351 
 276   0.0000       1.720793        46.8252 
 277   0.0000       1.722883        46.8820 
 278   0.0000       1.728726        47.0410 
 279   0.0000       1.735184        47.2167 
 280   0.0000       1.740278        47.3554 
 281   0.0000       1.747778        47.5595 
 282   0.0000       1.753465        47.7142 
 283   0.0000       1.762895        47.9708 
 284   0.0000       1.763544        47.9885 
 285   0.0000       1.767738        48.1026 
 286   0.0000       1.781362        48.4733 
 287   0.0000       1.783437        48.5298 
 288   0.0000       1.790299        48.7165 
 289   0.0000       1.794839        48.8400 
 290   0.0000       1.802697        49.0539 
 291   0.0000       1.804943        49.1150 
 292   0.0000       1.811554        49.2949 
 293   0.0000       1.819488        49.5108 
 294   0.0000       1.834231        49.9120 
 295   0.0000       1.846504        50.2459 
 296   0.0000       1.850151        50.3452 
 297   0.0000       1.854514        50.4639 
 298   0.0000       1.870365        50.8952 
 299   0.0000       1.881115        51.1877 
 300   0.0000       1.898471        51.6600 
 301   0.0000       1.907904        51.9167 
 302   0.0000       1.912895        52.0525 
 303   0.0000       1.928546        52.4784 
 304   0.0000       1.938648        52.7533 
 305   0.0000       1.940590        52.8061 
 306   0.0000       1.956442        53.2375 
 307   0.0000       1.962207        53.3944 
 308   0.0000       1.976322        53.7784 
 309   0.0000       1.981294        53.9138 
 310   0.0000       1.984312        53.9959 
 311   0.0000       2.012003        54.7494 
 312   0.0000       2.016293        54.8661 
 313   0.0000       2.031606        55.2828 
 314   0.0000       2.052492        55.8512 
 315   0.0000       2.058447        56.0132 
 316   0.0000       2.067299        56.2541 
 317   0.0000       2.069746        56.3207 
 318   0.0000       2.090423        56.8833 
 319   0.0000       2.103147        57.2295 
 320   0.0000       2.115302        57.5603 
 321   0.0000       2.121866        57.7389 
 322   0.0000       2.127691        57.8974 
 323   0.0000       2.143741        58.3342 
 324   0.0000       2.163730        58.8781 
 325   0.0000       2.170851        59.0719 
 326   0.0000       2.177523        59.2534 
 327   0.0000       2.189029        59.5665 
 328   0.0000       2.196208        59.7619 
 329   0.0000       2.208082        60.0850 
 330   0.0000       2.219186        60.3871 
 331   0.0000       2.225470        60.5581 
 332   0.0000       2.232502        60.7495 
 333   0.0000       2.253866        61.3308 
 334   0.0000       2.255435        61.3735 
 335   0.0000       2.261335        61.5340 
 336   0.0000       2.271545        61.8119 
 337   0.0000       2.278031        61.9884 
 338   0.0000       2.284230        62.1571 
 339   0.0000       2.294266        62.4301 
 340   0.0000       2.298630        62.5489 
 341   0.0000       2.312464        62.9254 
 342   0.0000       2.321649        63.1753 
 343   0.0000       2.325979        63.2931 
 344   0.0000       2.329439        63.3873 
 345   0.0000       2.335735        63.5586 
 346   0.0000       2.340375        63.6849 
 347   0.0000       2.345060        63.8123 
 348   0.0000       2.370477        64.5040 
 349   0.0000       2.378275        64.7161 
 350   0.0000       2.404974        65.4427 
 351   0.0000       2.417177        65.7747 
 352   0.0000       2.425216        65.9935 
 353   0.0000       2.438256        66.3483 
 354   0.0000       2.474999        67.3481 
 355   0.0000       2.481853        67.5347 
 356   0.0000       2.489619        67.7460 
 357   0.0000       2.534676        68.9720 
 358   0.0000       2.542113        69.1744 
 359   0.0000       2.550947        69.4148 
 360   0.0000       2.567205        69.8572 
 361   0.0000       2.608240        70.9738 
 362   0.0000       2.614410        71.1417 
 363   0.0000       2.620286        71.3016 
 364   0.0000       2.621325        71.3299 
 365   0.0000       2.628203        71.5170 
 366   0.0000       2.651243        72.1440 
 367   0.0000       2.680149        72.9306 
 368   0.0000       2.686142        73.0936 
 369   0.0000       2.700197        73.4761 
 370   0.0000       2.717992        73.9603 
 371   0.0000       2.726101        74.1810 
 372   0.0000       2.729192        74.2651 
 373   0.0000       2.732865        74.3650 
 374   0.0000       2.755292        74.9753 
 375   0.0000       2.770618        75.3924 
 376   0.0000       2.789063        75.8943 
 377   0.0000       2.799292        76.1726 
 378   0.0000       2.803880        76.2975 
 379   0.0000       2.816997        76.6544 
 380   0.0000       2.852485        77.6201 
 381   0.0000       2.865869        77.9843 
 382   0.0000       2.869111        78.0725 
 383   0.0000       2.871481        78.1370 
 384   0.0000       2.911251        79.2192 
 385   0.0000       2.921314        79.4930 
 386   0.0000       2.935179        79.8703 
 387   0.0000       2.937045        79.9210 
 388   0.0000       2.960717        80.5652 
 389   0.0000       3.021384        82.2160 
 390   0.0000       3.048906        82.9650 
 391   0.0000       3.058394        83.2231 
 392   0.0000       3.078261        83.7637 
 393   0.0000       3.087437        84.0134 
 394   0.0000       3.100531        84.3697 
 395   0.0000       3.122622        84.9709 
 396   0.0000       3.144355        85.5622 
 397   0.0000       3.173329        86.3507 
 398   0.0000       3.186999        86.7227 
 399   0.0000       3.252328        88.5004 
 400   0.0000       3.298966        89.7694 
 401   0.0000       3.311109        90.0999 
 402   0.0000       3.377593        91.9090 
 403   0.0000       3.430914        93.3599 
 404   0.0000       3.483759        94.7979 
 405   0.0000       3.564100        96.9841 
 406   0.0000       3.622525        98.5739 
 407   0.0000       3.626777        98.6896 
 408   0.0000       3.737685       101.7076 
 409   0.0000       3.868550       105.2686 
 410   0.0000       3.913624       106.4951 

                    ********************************
                    * MULLIKEN POPULATION ANALYSIS *
                    ********************************

-----------------------
MULLIKEN ATOMIC CHARGES
-----------------------
   0 C :    0.183939
   1 C :   -0.084833
   2 C :   -0.092909
   3 C :    0.144304
   4 C :   -0.087536
   5 C :   -0.133877
   6 C :    0.183701
   7 C :    0.229482
   8 C :   -0.113115
   9 C :   -0.084906
  10 C :    0.133886
  11 C :   -0.082865
  12 C :   -0.150486
  13 C :    0.212729
  14 C :    0.149542
  15 C :    0.157048
  16 C :   -0.051437
  17 C :   -0.057288
  18 C :   -0.200026
  19 C :    0.111492
  20 C :   -0.033641
  21 O :   -0.314306
  22 C :    0.171256
  23 N :    0.046773
  24 H :   -0.035337
  25 H :   -0.038689
  26 H :   -0.038716
  27 H :   -0.038396
  28 H :   -0.047419
[...]
    109       0.000021  -0.000084  -0.000095
    110       0.000008  -0.000121  -0.000030
    111       0.000006  -0.000054  -0.000031
    112      -0.000001  -0.000064   0.000002
    113      -0.000028   0.000413   0.000145
    114       0.000027  -0.000041  -0.000106
    115       0.000024  -0.000298  -0.000096
    116       0.000013   0.000049  -0.000042


-----------
IR SPECTRUM
-----------

 Mode   freq       eps      Int      T**2         TX        TY        TZ
       cm**-1   L/(mol*cm) km/mol    a.u.
----------------------------------------------------------------------------
  7:     20.81   0.000057    0.29  0.000855  ( 0.002533 -0.028954  0.003143)
  8:     37.60   0.000943    4.76  0.007824  (-0.006982 -0.041173 -0.077976)
  9:     57.30   0.000113    0.57  0.000615  ( 0.005617 -0.013334 -0.020136)
 10:     65.78   0.000324    1.64  0.001536  ( 0.019855  0.033753  0.001640)
 11:     89.84   0.000415    2.10  0.001443  ( 0.026739  0.026828  0.002814)
 12:     98.49   0.000184    0.93  0.000582  (-0.000586  0.014382 -0.019362)
 13:    115.33   0.000170    0.86  0.000461  (-0.009777  0.018578  0.004460)
 14:    142.62   0.000047    0.24  0.000103  ( 0.002576 -0.009801  0.000322)
 15:    156.28   0.000425    2.15  0.000848  ( 0.004011 -0.013623 -0.025426)
 16:    200.84   0.000088    0.45  0.000137  ( 0.003672 -0.009965 -0.004925)
 17:    214.82   0.001008    5.09  0.001464  (-0.004968 -0.027695  0.025934)
 18:    223.86   0.001281    6.47  0.001785  ( 0.005078  0.020642  0.036513)
 19:    241.93   0.000151    0.76  0.000195  (-0.011728 -0.007489  0.001221)
 20:    264.59   0.000040    0.20  0.000047  (-0.006021  0.001107 -0.003081)
 21:    265.88   0.000048    0.24  0.000057  ( 0.002501 -0.006711 -0.002336)
 22:    299.19   0.000134    0.68  0.000140  (-0.008765 -0.004710 -0.006402)
 23:    322.53   0.001460    7.38  0.001413  (-0.028361  0.024288  0.004306)
 24:    367.65   0.000207    1.05  0.000176  ( 0.009445 -0.008330 -0.004154)
 25:    401.31   0.003891   19.66  0.003026  (-0.034086  0.042408 -0.008090)
 26:    420.84   0.000469    2.37  0.000348  ( 0.009654 -0.015957  0.000386)
 27:    451.06   0.000402    2.03  0.000278  (-0.008346  0.012625  0.007004)
 28:    478.35   0.000597    3.02  0.000390  (-0.013353  0.014208 -0.003066)
 29:    493.84   0.000750    3.79  0.000474  ( 0.004565 -0.003524 -0.020994)
 30:    505.53   0.000090    0.46  0.000056  ( 0.002995 -0.006692 -0.001411)
 31:    522.59   0.001971    9.96  0.001177  (-0.008638  0.033144 -0.001886)
 32:    528.07   0.000296    1.50  0.000175  (-0.003616  0.012463  0.002550)
 33:    543.83   0.000465    2.35  0.000267  ( 0.015050 -0.006140  0.001694)
 34:    560.84   0.000025    0.12  0.000014  ( 0.002018 -0.003017  0.000683)
 35:    565.89   0.000008    0.04  0.000004  (-0.000250  0.001925  0.000691)
 36:    581.78   0.000551    2.79  0.000296  (-0.006395  0.007423  0.014131)
 37:    614.99   0.001963    9.92  0.000996  ( 0.014903 -0.027803 -0.000910)
 38:    630.77   0.000084    0.43  0.000042  (-0.005838  0.002665  0.000751)
 39:    678.09   0.000455    2.30  0.000209  ( 0.007154 -0.011318 -0.005485)
 40:    702.55   0.000174    0.88  0.000077  ( 0.005813 -0.006582  0.000129)
 41:    719.03   0.001003    5.07  0.000435  (-0.002081  0.002557  0.020604)
 42:    754.47   0.002409   12.17  0.000996  ( 0.003101  0.000765 -0.031404)
 43:    762.05   0.000509    2.57  0.000208  ( 0.005482 -0.003230  0.012960)
 44:    781.28   0.000258    1.31  0.000103  ( 0.003354 -0.009485  0.001409)
 45:    815.30   0.005415   27.36  0.002073  (-0.020026  0.040884 -0.000279)
 46:    817.02   0.000274    1.39  0.000105  (-0.001227  0.004930  0.008888)
 47:    831.79   0.001757    8.88  0.000659  ( 0.000465 -0.007339  0.024601)
 48:    851.90   0.000709    3.58  0.000260  ( 0.003113  0.005165  0.014946)
 49:    856.77   0.000221    1.12  0.000080  ( 0.004729  0.002359 -0.007247)
 50:    876.28   0.005532   27.96  0.001970  (-0.004655  0.002272 -0.044081)
 51:    884.84   0.000628    3.18  0.000222  ( 0.010484 -0.006887 -0.008016)
 52:    890.16   0.005438   27.48  0.001906  (-0.004992  0.003866  0.043202)
 53:    942.11   0.000440    2.22  0.000146  (-0.001320  0.001788 -0.011869)
 54:    947.43   0.009150   46.24  0.003014  ( 0.023093 -0.014572  0.047624)
 55:    985.09   0.003303   16.69  0.001046  (-0.000782  0.001612  0.032299)
 56:    988.10   0.004121   20.83  0.001302  (-0.017478  0.031508  0.001817)
 57:    993.80   0.000476    2.41  0.000149  (-0.000682  0.012037 -0.002024)
 58:    999.20   0.001349    6.82  0.000421  (-0.012241  0.016469  0.000448)
 59:   1001.85   0.001408    7.12  0.000439  ( 0.002751 -0.004623  0.020240)
 60:   1012.56   0.000057    0.29  0.000018  ( 0.000124  0.003573  0.002198)
 61:   1016.53   0.000020    0.10  0.000006  (-0.001939  0.001377  0.000661)
 62:   1039.65   0.001103    5.57  0.000331  ( 0.012851  0.010554 -0.007379)
 63:   1046.97   0.004969   25.11  0.001481  (-0.011544 -0.031130  0.019463)
 64:   1120.50   0.003935   19.89  0.001096  ( 0.006917 -0.031494  0.007504)
 65:   1131.33   0.000087    0.44  0.000024  (-0.002689  0.004041 -0.000580)
 66:   1169.62   0.002821   14.25  0.000753  (-0.008829  0.025955 -0.000996)
 67:   1171.00   0.036448  184.19  0.009713  (-0.039882  0.087222 -0.022689)
 68:   1181.63   0.003631   18.35  0.000959  ( 0.015366 -0.025847  0.007392)
 69:   1188.35   0.001897    9.59  0.000498  (-0.013388  0.017466 -0.003728)
 70:   1200.80   0.000953    4.81  0.000248  ( 0.006069  0.014473  0.001124)
 71:   1210.86   0.004068   20.56  0.001048  ( 0.030821 -0.008907  0.004373)
 72:   1241.11   0.019386   97.97  0.004874  (-0.035381  0.058911 -0.012332)
 73:   1257.82   0.099351  502.08  0.024649  ( 0.070573 -0.138648  0.021096)
 74:   1265.16   0.009050   45.73  0.002232  (-0.023205  0.041110 -0.001900)
 75:   1271.88   0.001492    7.54  0.000366  (-0.009336  0.015350 -0.006584)
 76:   1280.52   0.002209   11.16  0.000538  (-0.020153  0.011493  0.000437)
 77:   1293.39   0.089884  454.24  0.021687  ( 0.079518 -0.121232  0.025817)
 78:   1309.40   0.011222   56.71  0.002675  ( 0.027448 -0.042333  0.011362)
 79:   1331.14   0.004841   24.46  0.001135  ( 0.015843 -0.029473  0.003892)
 80:   1340.44   0.000607    3.07  0.000141  ( 0.000342 -0.011818  0.001220)
 81:   1371.10   0.001162    5.87  0.000264  ( 0.014287  0.005207 -0.005756)
 82:   1372.15   0.000290    1.47  0.000066  (-0.005210 -0.005493  0.002937)
 83:   1405.69   0.001357    6.86  0.000301  ( 0.010667 -0.012522  0.005546)
 84:   1406.77   0.001689    8.54  0.000375  ( 0.005040 -0.018140  0.004497)
 85:   1424.32   0.004678   23.64  0.001025  (-0.008799  0.030599 -0.003338)
 86:   1442.01   0.000621    3.14  0.000134  ( 0.006868 -0.009311  0.000643)
 87:   1464.93   0.000873    4.41  0.000186  ( 0.001056 -0.008368 -0.010712)
 88:   1466.50   0.001261    6.37  0.000268  ( 0.001205  0.015260  0.005825)
 89:   1470.16   0.000419    2.12  0.000089  ( 0.003992 -0.007954 -0.003111)
 90:   1475.02   0.020110  101.63  0.004255  ( 0.039280 -0.051096  0.010041)
 91:   1504.28   0.000502    2.54  0.000104  (-0.009129 -0.004515 -0.000716)
 92:   1536.29   0.000464    2.34  0.000094  ( 0.009579  0.001498  0.000421)
 93:   1546.38   0.002420   12.23  0.000488  ( 0.007728 -0.020704 -0.000156)
 94:   1575.04   0.004313   21.80  0.000855  ( 0.018572 -0.022336  0.003276)
 95:   1622.04   0.001687    8.52  0.000325  ( 0.004198 -0.017416  0.001888)
 96:   1637.62   0.059168  299.01  0.011275  (-0.056788  0.089261 -0.009085)
 97:   1656.50   0.009054   45.76  0.001706  ( 0.003666 -0.041135  0.000457)
 98:   1663.87   0.020809  105.16  0.003903  ( 0.034962 -0.051542  0.004872)
 99:   1675.26   0.001186    5.99  0.000221  (-0.000326  0.014646 -0.002503)
100:   1717.32   0.099735  504.02  0.018123  ( 0.064118 -0.116310  0.022005)
101:   2336.63   0.028955  146.33  0.003867  (-0.038356  0.048802 -0.003772)
102:   2996.20   0.033506  169.33  0.003490  ( 0.013706 -0.054234  0.018991)
103:   3069.02   0.007266   36.72  0.000739  ( 0.009996  0.009478  0.023432)
104:   3134.81   0.001962    9.91  0.000195  (-0.013355  0.002229  0.003455)
105:   3145.96   0.003757   18.99  0.000373  (-0.016907  0.008810  0.003041)
106:   3170.98   0.000222    1.12  0.000022  (-0.003660  0.002897 -0.000306)
107:   3173.88   0.000166    0.84  0.000016  (-0.002322 -0.003299  0.000046)
108:   3174.31   0.002511   12.69  0.000247  (-0.015665  0.000663 -0.000982)
109:   3175.82   0.003512   17.75  0.000345  (-0.017202  0.006933 -0.001062)
110:   3179.16   0.000687    3.47  0.000067  ( 0.006260  0.005312  0.000065)
111:   3186.57   0.001689    8.54  0.000165  (-0.007714  0.010284 -0.000399)
112:   3191.89   0.003986   20.14  0.000390  ( 0.005170  0.019050  0.000265)
113:   3199.31   0.002287   11.56  0.000223  ( 0.006344  0.013520 -0.000187)
114:   3200.86   0.000331    1.67  0.000032  (-0.003440  0.004508 -0.000303)
115:   3216.32   0.002184   11.04  0.000212  ( 0.014180 -0.003230  0.000636)
116:   3222.38   0.002702   13.66  0.000262  ( 0.015096 -0.005745  0.000884)

* The epsilon (eps) is given for a Dirac delta lineshape.
** The dipole moment derivative (T) already includes vibrational overlap.

The first frequency considered to be a vibration is 7
The total number of vibrations considered is 110


--------------------------
THERMOCHEMISTRY AT 298.15K
--------------------------

Temperature         ... 298.15 K
Pressure            ... 1.00 atm
Total Mass          ... 309.37 AMU

Throughout the following assumptions are being made:
  (1) The electronic state is orbitally nondegenerate
  (2) There are no thermally accessible electronically excited states
  (3) Hindered rotations indicated by low frequency modes are not
      treated as such but are treated as vibrations and this may
      cause some error
  (4) All equations used are the standard statistical mechanics
      equations for an ideal gas
  (5) All vibrations are strictly harmonic

freq.      20.81  E(vib)   ...       0.56 
freq.      37.60  E(vib)   ...       0.54 
freq.      57.30  E(vib)   ...       0.51 
freq.      65.78  E(vib)   ...       0.50 
freq.      89.84  E(vib)   ...       0.47 
freq.      98.49  E(vib)   ...       0.46 
freq.     115.33  E(vib)   ...       0.44 
freq.     142.62  E(vib)   ...       0.41 
freq.     156.28  E(vib)   ...       0.40 
freq.     200.84  E(vib)   ...       0.35 
freq.     214.82  E(vib)   ...       0.34 
freq.     223.86  E(vib)   ...       0.33 
freq.     241.93  E(vib)   ...       0.31 
freq.     264.59  E(vib)   ...       0.29 
freq.     265.88  E(vib)   ...       0.29 
freq.     299.19  E(vib)   ...       0.26 
freq.     322.53  E(vib)   ...       0.25 
freq.     367.65  E(vib)   ...       0.21 
freq.     401.31  E(vib)   ...       0.19 
freq.     420.84  E(vib)   ...       0.18 
freq.     451.06  E(vib)   ...       0.16 
freq.     478.35  E(vib)   ...       0.15 
freq.     493.84  E(vib)   ...       0.14 
freq.     505.53  E(vib)   ...       0.14 
freq.     522.59  E(vib)   ...       0.13 
freq.     528.07  E(vib)   ...       0.13 
freq.     543.83  E(vib)   ...       0.12 
freq.     560.84  E(vib)   ...       0.11 
freq.     565.89  E(vib)   ...       0.11 
freq.     581.78  E(vib)   ...       0.11 
freq.     614.99  E(vib)   ...       0.10 
freq.     630.77  E(vib)   ...       0.09 
freq.     678.09  E(vib)   ...       0.08 
freq.     702.55  E(vib)   ...       0.07 
freq.     719.03  E(vib)   ...       0.07 
freq.     754.47  E(vib)   ...       0.06 
freq.     762.05  E(vib)   ...       0.06 
freq.     781.28  E(vib)   ...       0.05 
freq.     815.30  E(vib)   ...       0.05 
freq.     817.02  E(vib)   ...       0.05 
freq.     831.79  E(vib)   ...       0.04 
freq.     851.90  E(vib)   ...       0.04 
freq.     856.77  E(vib)   ...       0.04 
freq.     876.28  E(vib)   ...       0.04 
freq.     884.84  E(vib)   ...       0.04 
freq.     890.16  E(vib)   ...       0.04 
freq.     942.11  E(vib)   ...       0.03 
freq.     947.43  E(vib)   ...       0.03 
freq.     985.09  E(vib)   ...       0.02 
freq.     988.10  E(vib)   ...       0.02 
freq.     993.80  E(vib)   ...       0.02 
freq.     999.20  E(vib)   ...       0.02 
freq.    1001.85  E(vib)   ...       0.02 
freq.    1012.56  E(vib)   ...       0.02 
freq.    1016.53  E(vib)   ...       0.02 
freq.    1039.65  E(vib)   ...       0.02 
freq.    1046.97  E(vib)   ...       0.02 
freq.    1120.50  E(vib)   ...       0.01 
freq.    1131.33  E(vib)   ...       0.01 
freq.    1169.62  E(vib)   ...       0.01 
freq.    1171.00  E(vib)   ...       0.01 
freq.    1181.63  E(vib)   ...       0.01 
freq.    1188.35  E(vib)   ...       0.01 
freq.    1200.80  E(vib)   ...       0.01 
freq.    1210.86  E(vib)   ...       0.01 
freq.    1241.11  E(vib)   ...       0.01 
freq.    1257.82  E(vib)   ...       0.01 
freq.    1265.16  E(vib)   ...       0.01 
freq.    1271.88  E(vib)   ...       0.01 
freq.    1280.52  E(vib)   ...       0.01 
freq.    1293.39  E(vib)   ...       0.01 
freq.    1309.40  E(vib)   ...       0.01 
freq.    1331.14  E(vib)   ...       0.01 
freq.    1340.44  E(vib)   ...       0.01 
freq.    1371.10  E(vib)   ...       0.01 
freq.    1372.15  E(vib)   ...       0.01 
freq.    1405.69  E(vib)   ...       0.00 
freq.    1406.77  E(vib)   ...       0.00 
freq.    1424.32  E(vib)   ...       0.00 
freq.    1442.01  E(vib)   ...       0.00 
freq.    1464.93  E(vib)   ...       0.00 
freq.    1466.50  E(vib)   ...       0.00 
freq.    1470.16  E(vib)   ...       0.00 
freq.    1475.02  E(vib)   ...       0.00 
freq.    1504.28  E(vib)   ...       0.00 
freq.    1536.29  E(vib)   ...       0.00 
freq.    1546.38  E(vib)   ...       0.00 
freq.    1575.04  E(vib)   ...       0.00 
freq.    1622.04  E(vib)   ...       0.00 
freq.    1637.62  E(vib)   ...       0.00 
freq.    1656.50  E(vib)   ...       0.00 
freq.    1663.87  E(vib)   ...       0.00 
freq.    1675.26  E(vib)   ...       0.00 
freq.    1717.32  E(vib)   ...       0.00 
freq.    2336.63  E(vib)   ...       0.00 
freq.    2996.20  E(vib)   ...       0.00 
freq.    3069.02  E(vib)   ...       0.00 
freq.    3134.81  E(vib)   ...       0.00 
freq.    3145.96  E(vib)   ...       0.00 
freq.    3170.98  E(vib)   ...       0.00 
freq.    3173.88  E(vib)   ...       0.00 
freq.    3174.31  E(vib)   ...       0.00 
freq.    3175.82  E(vib)   ...       0.00 
freq.    3179.16  E(vib)   ...       0.00 
freq.    3186.57  E(vib)   ...       0.00 
freq.    3191.89  E(vib)   ...       0.00 
freq.    3199.31  E(vib)   ...       0.00 
freq.    3200.86  E(vib)   ...       0.00 
freq.    3216.32  E(vib)   ...       0.00 
freq.    3222.38  E(vib)   ...       0.00 

------------
INNER ENERGY
------------

The inner energy is: U= E(el) + E(ZPE) + E(vib) + E(rot) + E(trans)
    E(el)   - is the total energy from the electronic structure calculation
              = E(kin-el) + E(nuc-el) + E(el-el) + E(nuc-nuc)
    E(ZPE)  - the the zero temperature vibrational energy from the frequency calculation
    E(vib)  - the the finite temperature correction to E(ZPE) due to population
              of excited vibrational states
    E(rot)  - is the rotational thermal energy
    E(trans)- is the translational thermal energy

Summary of contributions to the inner energy U:
Electronic energy                ...   -976.03476373 Eh
Zero point energy                ...      0.30493773 Eh     191.35 kcal/mol
Thermal vibrational correction   ...      0.01594965 Eh      10.01 kcal/mol
Thermal rotational correction    ...      0.00141627 Eh       0.89 kcal/mol
Thermal translational correction ...      0.00141627 Eh       0.89 kcal/mol
-----------------------------------------------------------------------
Total thermal energy                   -975.71104379 Eh


Summary of corrections to the electronic energy:
(perhaps to be used in another calculation)
Total thermal correction                  0.01878220 Eh      11.79 kcal/mol
Non-thermal (ZPE) correction              0.30493773 Eh     191.35 kcal/mol
-----------------------------------------------------------------------
Total correction                          0.32371993 Eh     203.14 kcal/mol


--------
ENTHALPY
--------

The enthalpy is H = U + kB*T
                kB is Boltzmann's constant
Total free energy                 ...   -975.71104379 Eh 
Thermal Enthalpy correction       ...      0.00094421 Eh       0.59 kcal/mol
-----------------------------------------------------------------------
Total Enthalpy                    ...   -975.71009959 Eh


Note: Only C1 symmetry has been detected, increase convergence thresholds 
      if your molecule has a higher symmetry. Symmetry factor of 1.0 is   
      used for the rotational entropy correction. 
 

Note: Rotational entropy computed according to Herzberg 
Infrared and Raman Spectra, Chapter V,1, Van Nostrand Reinhold, 1945 
Point Group:  C1, Symmetry Number:   1  
Rotational constants in cm-1:     0.025722     0.003245     0.002893 

Vibrational entropy computed according to the QRRHO of S. Grimme
Chem.Eur.J. 2012 18 9955


-------
ENTROPY
-------

The entropy contributions are T*S = T*(S(el)+S(vib)+S(rot)+S(trans))
     S(el)   - electronic entropy
     S(vib)  - vibrational entropy
     S(rot)  - rotational entropy
     S(trans)- translational entropy
The entropies will be listed as multiplied by the temperature to get
units of energy

Electronic entropy                ...      0.00000000 Eh      0.00 kcal/mol
Vibrational entropy               ...      0.02782226 Eh     17.46 kcal/mol
Rotational entropy                ...      0.01670372 Eh     10.48 kcal/mol
Translational entropy             ...      0.02047072 Eh     12.85 kcal/mol
-----------------------------------------------------------------------
Final entropy term                ...      0.06499671 Eh     40.79 kcal/mol

In case the symmetry of your molecule has not been determined correctly
or in case you have a reason to use a different symmetry number we print 
out the resulting rotational entropy values for sn=1,12 :
 --------------------------------------------------------
|  sn= 1 | S(rot)=       0.01670372 Eh     10.48 kcal/mol|
|  sn= 2 | S(rot)=       0.01604927 Eh     10.07 kcal/mol|
|  sn= 3 | S(rot)=       0.01566644 Eh      9.83 kcal/mol|
|  sn= 4 | S(rot)=       0.01539481 Eh      9.66 kcal/mol|
|  sn= 5 | S(rot)=       0.01518412 Eh      9.53 kcal/mol|
|  sn= 6 | S(rot)=       0.01501198 Eh      9.42 kcal/mol|
|  sn= 7 | S(rot)=       0.01486643 Eh      9.33 kcal/mol|
|  sn= 8 | S(rot)=       0.01474036 Eh      9.25 kcal/mol|
|  sn= 9 | S(rot)=       0.01462915 Eh      9.18 kcal/mol|
|  sn=10 | S(rot)=       0.01452967 Eh      9.12 kcal/mol|
|  sn=11 | S(rot)=       0.01443968 Eh      9.06 kcal/mol|
|  sn=12 | S(rot)=       0.01435752 Eh      9.01 kcal/mol|
 --------------------------------------------------------


-------------------
GIBBS FREE ENERGY
-------------------

The Gibbs free energy is G = H - T*S

Total enthalpy                    ...   -975.71009959 Eh 
Total entropy correction          ...     -0.06499671 Eh    -40.79 kcal/mol
-----------------------------------------------------------------------
Final Gibbs free energy         ...   -975.77509630 Eh

For completeness - the Gibbs free energy minus the electronic energy
G-E(el)                           ...      0.25966743 Eh    162.94 kcal/mol


Timings for individual modules:

Sum of individual times         ...     3051.595 sec (=  50.860 min)
GTO integral calculation        ...      162.285 sec (=   2.705 min)   5.3 %
SCF iterations                  ...     1703.419 sec (=  28.390 min)  55.8 %
SCF Gradient evaluation         ...      425.576 sec (=   7.093 min)  13.9 %
Geometry relaxation             ...       10.483 sec (=   0.175 min)   0.3 %
Analytical frequency calculation...      749.833 sec (=  12.497 min)  24.6 %
                             ****ORCA TERMINATED NORMALLY****
TOTAL RUN TIME: 0 days 0 hours 51 minutes 37 seconds 520 msec
