Start Job  on nano05

                                 *****************
                                 * O   R   C   A *
                                 *****************

                                            #,                                       
                                            ###                                      
                                            ####                                     
                                            #####                                    
                                            ######                                   
                                           ########,                                 
                                     ,,################,,,,,                         
                               ,,#################################,,                 
                          ,,##########################################,,             
                       ,#########################################, ''#####,          
                    ,#############################################,,   '####,        
                  ,##################################################,,,,####,       
                ,###########''''           ''''###############################       
              ,#####''   ,,,,##########,,,,          '''####'''          '####       
            ,##' ,,,,###########################,,,                        '##       
           ' ,,###''''                  '''############,,,                           
         ,,##''                                '''############,,,,        ,,,,,,###''
      ,#''                                            '''#######################'''  
     '                                                          ''''####''''         
             ,#######,   #######,   ,#######,      ##                                
            ,#'     '#,  ##    ##  ,#'     '#,    #''#        ######   ,####,        
            ##       ##  ##   ,#'  ##            #'  '#       #        #'  '#        
            ##       ##  #######   ##           ,######,      #####,   #    #        
            '#,     ,#'  ##    ##  '#,     ,#' ,#      #,         ##   #,  ,#        
             '#######'   ##     ##  '#######'  #'      '#     #####' # '####'        



                  #######################################################
                  #                        -***-                        #
                  #          Department of theory and spectroscopy      #
                  #    Directorship and core code : Frank Neese         #
                  #        Max Planck Institute fuer Kohlenforschung    #
                  #                Kaiser Wilhelm Platz 1               #
                  #                 D-45470 Muelheim/Ruhr               #
                  #                      Germany                        #
                  #                                                     #
                  #                  All rights reserved                #
                  #                        -***-                        #
                  #######################################################


                         Program Version 5.0.4 -  RELEASE  -


 With contributions from (in alphabetic order):
   Daniel Aravena         : Magnetic Suceptibility
   Michael Atanasov       : Ab Initio Ligand Field Theory (pilot matlab implementation)
   Alexander A. Auer      : GIAO ZORA, VPT2 properties, NMR spectrum
   Ute Becker             : Parallelization
   Giovanni Bistoni       : ED, misc. LED, open-shell LED, HFLD
   Martin Brehm           : Molecular dynamics
   Dmytro Bykov           : SCF Hessian
   Vijay G. Chilkuri      : MRCI spin determinant printing, contributions to CSF-ICE
   Dipayan Datta          : RHF DLPNO-CCSD density
   Achintya Kumar Dutta   : EOM-CC, STEOM-CC
   Dmitry Ganyushin       : Spin-Orbit,Spin-Spin,Magnetic field MRCI
   Miquel Garcia          : C-PCM and meta-GGA Hessian, CC/C-PCM, Gaussian charge scheme
   Yang Guo               : DLPNO-NEVPT2, F12-NEVPT2, CIM, IAO-localization
   Andreas Hansen         : Spin unrestricted coupled pair/coupled cluster methods
   Benjamin Helmich-Paris : MC-RPA, TRAH-SCF, COSX integrals
   Lee Huntington         : MR-EOM, pCC
   Robert Izsak           : Overlap fitted RIJCOSX, COSX-SCS-MP3, EOM
   Marcus Kettner         : VPT2
   Christian Kollmar      : KDIIS, OOCD, Brueckner-CCSD(T), CCSD density, CASPT2, CASPT2-K
   Simone Kossmann        : Meta GGA functionals, TD-DFT gradient, OOMP2, MP2 Hessian
   Martin Krupicka        : Initial AUTO-CI
   Lucas Lang             : DCDCAS
   Marvin Lechner         : AUTO-CI (C++ implementation), FIC-MRCC
   Dagmar Lenk            : GEPOL surface, SMD
   Dimitrios Liakos       : Extrapolation schemes; Compound Job, initial MDCI parallelization
   Dimitrios Manganas     : Further ROCIS development; embedding schemes
   Dimitrios Pantazis     : SARC Basis sets
   Anastasios Papadopoulos: AUTO-CI, single reference methods and gradients
   Taras Petrenko         : DFT Hessian,TD-DFT gradient, ASA, ECA, R-Raman, ABS, FL, XAS/XES, NRVS
   Peter Pinski           : DLPNO-MP2, DLPNO-MP2 Gradient
   Christoph Reimann      : Effective Core Potentials
   Marius Retegan         : Local ZFS, SOC
   Christoph Riplinger    : Optimizer, TS searches, QM/MM, DLPNO-CCSD(T), (RO)-DLPNO pert. Triples
   Tobias Risthaus        : Range-separated hybrids, TD-DFT gradient, RPA, STAB
   Michael Roemelt        : Original ROCIS implementation
   Masaaki Saitow         : Open-shell DLPNO-CCSD energy and density
   Barbara Sandhoefer     : DKH picture change effects
   Avijit Sen             : IP-ROCIS
   Kantharuban Sivalingam : CASSCF convergence, NEVPT2, FIC-MRCI
   Bernardo de Souza      : ESD, SOC TD-DFT
   Georgi Stoychev        : AutoAux, RI-MP2 NMR, DLPNO-MP2 response
   Willem Van den Heuvel  : Paramagnetic NMR
   Boris Wezisla          : Elementary symmetry handling
   Frank Wennmohs         : Technical directorship


 We gratefully acknowledge several colleagues who have allowed us to
 interface, adapt or use parts of their codes:
   Stefan Grimme, W. Hujo, H. Kruse, P. Pracht,  : VdW corrections, initial TS optimization,
                  C. Bannwarth, S. Ehlert          DFT functionals, gCP, sTDA/sTD-DF
   Ed Valeev, F. Pavosevic, A. Kumar             : LibInt (2-el integral package), F12 methods
   Garnet Chan, S. Sharma, J. Yang, R. Olivares  : DMRG
   Ulf Ekstrom                                   : XCFun DFT Library
   Mihaly Kallay                                 : mrcc  (arbitrary order and MRCC methods)
   Jiri Pittner, Ondrej Demel                    : Mk-CCSD
   Frank Weinhold                                : gennbo (NPA and NBO analysis)
   Christopher J. Cramer and Donald G. Truhlar   : smd solvation model
   Lars Goerigk                                  : TD-DFT with DH, B97 family of functionals
   V. Asgeirsson, H. Jonsson                     : NEB implementation
   FAccTs GmbH                                   : IRC, NEB, NEB-TS, DLPNO-Multilevel, CI-OPT
                                                   MM, QMMM, 2- and 3-layer-ONIOM, Crystal-QMMM,
                                                   LR-CPCM, SF, NACMEs, symmetry and pop. for TD-DFT,
                                                   nearIR, NL-DFT gradient (VV10), updates on ESD,
                                                   ML-optimized integration grids
   S Lehtola, MJT Oliveira, MAL Marques          : LibXC Library
   Liviu Ungur et al                             : ANISO software


 Your calculation uses the libint2 library for the computation of 2-el integrals
 For citations please refer to: http://libint.valeyev.net

 Your ORCA version has been built with support for libXC version: 5.1.0
 For citations please refer to: https://tddft.org/programs/libxc/

 This ORCA versions uses:
   CBLAS   interface :  Fast vector & matrix operations
   LAPACKE interface :  Fast linear algebra routines
   SCALAPACK package :  Parallel linear algebra routines
   Shared memory     :  Shared parallel matrices
   BLAS/LAPACK       :  OpenBLAS 0.3.15  USE64BITINT DYNAMIC_ARCH NO_AFFINITY Zen SINGLE_THREADED
        Core in use  :  Zen
   Copyright (c) 2011-2014, The OpenBLAS Project


================================================================================

----- Orbital basis set information -----
Your calculation utilizes the basis: def2-SVP
   F. Weigend and R. Ahlrichs, Phys. Chem. Chem. Phys. 7, 3297 (2005).

----- AuxJ basis set information -----
Your calculation utilizes the auxiliary basis: def2/J
   F. Weigend, Phys. Chem. Chem. Phys. 8, 1057 (2006).

================================================================================
                                        WARNINGS
                       Please study these warnings very carefully!
================================================================================


WARNING: Geometry Optimization
  ===> : Switching off AutoStart
         For restart on a previous wavefunction, please use MOREAD

INFO   : the flag for use of the SHARK integral package has been found!

================================================================================
                                       INPUT FILE
================================================================================
NAME = NC_OMe_2.inp
|  1> ! B3LYP def2-SVP Opt PAL8 FREQ defgrid3 slowconv VeryTightSCF
|  2> *xyz 0 1
|  3>   C      -7.217413      3.478866     -0.268637
|  4>   C      -5.951446      4.103154     -0.226802
|  5>   C      -4.776323      3.377690     -0.151212
|  6>   C      -4.799086      1.968572     -0.114946
|  7>   C      -3.596265      1.197053     -0.029071
|  8>   C      -3.626430     -0.168070      0.004087
|  9>   C      -4.862545     -0.898294     -0.053870
| 10>   C      -4.907145     -2.327436     -0.029002
| 11>   C      -6.170124     -2.955485     -0.074641
| 12>   C      -7.351812     -2.230600     -0.124685
| 13>   C      -7.338473     -0.823808     -0.154287
| 14>   C      -8.540914     -0.050883     -0.225954
| 15>   C      -8.515333      1.313914     -0.263932
| 16>   C      -7.278568      2.048265     -0.230912
| 17>   C      -6.056944      1.291036     -0.157170
| 18>   C      -6.082847     -0.144141     -0.123437
| 19>   C      -8.433983      4.282406     -0.349699
| 20>   C      -3.678602     -3.123684      0.029252
| 21>   C      -8.521629      5.635728     -0.414756
| 22>   C      -3.588494     -4.380264      0.511268
| 23>   C      -9.773826      6.312825     -0.493266
| 24>   O      -2.428344     -5.066513      0.481656
| 25>   C      -2.409668     -6.316367      1.144059
| 26>   N     -10.786674      6.881919     -0.558944
| 27>   H      -5.890018      5.192708     -0.251746
| 28>   H      -3.814269      3.895854     -0.117921
| 29>   H      -2.640511      1.726370      0.015428
| 30>   H      -2.686419     -0.713893      0.086190
| 31>   H      -6.220403     -4.046156     -0.104461
| 32>   H      -8.310985     -2.754515     -0.164817
| 33>   H      -9.498454     -0.578732     -0.251412
| 34>   H      -9.463969      1.846744     -0.319855
| 35>   H      -9.383411      3.745211     -0.361524
| 36>   H      -2.747526     -2.685937     -0.338160
| 37>   H      -7.637151      6.278923     -0.413083
| 38>   H      -4.444560     -4.904729      0.956018
| 39>   H      -1.416711     -6.755071      0.977106
| 40>   H      -2.571838     -6.202641      2.231445
| 41>   H      -3.175316     -7.002600      0.737684
| 42> *
| 43> 
| 44>                          ****END OF INPUT****
================================================================================

                       *****************************
                       * Geometry Optimization Run *
                       *****************************

Geometry optimization settings:
Update method            Update   .... BFGS
Choice of coordinates    CoordSys .... Z-matrix Internals
Initial Hessian          InHess   .... Almoef's Model

Convergence Tolerances:
Energy Change            TolE     ....  5.0000e-06 Eh
Max. Gradient            TolMAXG  ....  3.0000e-04 Eh/bohr
RMS Gradient             TolRMSG  ....  1.0000e-04 Eh/bohr
Max. Displacement        TolMAXD  ....  4.0000e-03 bohr
RMS Displacement         TolRMSD  ....  2.0000e-03 bohr
Strict Convergence                ....  False
------------------------------------------------------------------------------
                        ORCA OPTIMIZATION COORDINATE SETUP
------------------------------------------------------------------------------

The optimization will be done in new redundant internal coordinates
Making redundant internal coordinates   ...  (new redundants) done
Evaluating the initial hessian          ...  (Almloef) done
Evaluating the coordinates              ...  done
Calculating the B-matrix                .... done
Calculating the G-matrix                .... done
Diagonalizing the G-matrix              .... done
Small eigenvalue found = 3.312e-03
Small eigenvalue found = 8.101e-03
Small eigenvalue found = 9.776e-03
Small eigenvalue found = 2.414e-02
The first mode is                       ....   97
The number of degrees of freedom        ....  111

    -----------------------------------------------------------------
                    Redundant Internal Coordinates


    -----------------------------------------------------------------
         Definition                    Initial Value    Approx d2E/dq
    -----------------------------------------------------------------
      1. B(C   1,C   0)                  1.4121         0.575977   
      2. B(C   2,C   1)                  1.3831         0.640870   
      3. B(C   3,C   2)                  1.4098         0.581031   
      4. B(C   4,C   3)                  1.4316         0.536309   
      5. B(C   5,C   4)                  1.3659         0.682738   
      6. B(C   6,C   5)                  1.4369         0.525989   
      7. B(C   7,C   6)                  1.4301         0.539306   
      8. B(C   8,C   7)                  1.4113         0.577864   
      9. B(C   9,C   8)                  1.3872         0.631235   
     10. B(C  10,C   9)                  1.4072         0.586611   
     11. B(C  11,C  10)                  1.4312         0.536985   
     12. B(C  12,C  11)                  1.3656         0.683476   
     13. B(C  13,C  12)                  1.4387         0.522384   
     14. B(C  13,C   0)                  1.4324         0.534669   
     15. B(C  14,C   3)                  1.4294         0.540700   
     16. B(C  14,C  13)                  1.4392         0.521552   
     17. B(C  15,C  14)                  1.4358         0.528027   
     18. B(C  15,C  10)                  1.4281         0.543173   
     19. B(C  15,C   6)                  1.4362         0.527230   
     20. B(C  16,C   0)                  1.4602         0.482704   
     21. B(C  17,C   7)                  1.4652         0.474035   
     22. B(C  18,C  16)                  1.3577         0.703468   
     23. B(C  19,C  17)                  1.3489         0.726704   
     24. B(C  20,C  18)                  1.4257         0.548000   
     25. B(O  21,C  19)                  1.3482         0.652370   
     26. B(C  22,O  21)                  1.4147         0.511132   
     27. B(N  23,C  20)                  1.1636         1.285372   
     28. B(H  24,C   1)                  1.0916         0.358030   
     29. B(H  25,C   2)                  1.0932         0.355853   
     30. B(H  26,C   4)                  1.0934         0.355571   
     31. B(H  27,C   5)                  1.0901         0.359988   
     32. B(H  28,C   8)                  1.0922         0.357154   
     33. B(H  29,C   9)                  1.0937         0.355280   
     34. B(H  30,C  11)                  1.0937         0.355253   
     35. B(H  31,C  12)                  1.0895         0.360801   
     36. B(H  32,C  16)                  1.0909         0.358870   
     37. B(H  33,C  17)                  1.0925         0.356832   
     38. B(H  34,C  18)                  1.0936         0.355343   
     39. B(H  35,C  19)                  1.0981         0.349606   
     40. B(H  36,C  22)                  1.0983         0.349265   
     41. B(H  37,C  22)                  1.1053         0.340445   
     42. B(H  38,C  22)                  1.1056         0.340088   
     43. A(C   1,C   0,C  13)          118.6215         0.417176   
     44. A(C   1,C   0,C  16)          120.3489         0.409669   
     45. A(C  13,C   0,C  16)          121.0296         0.404313   
     46. A(C   2,C   1,H  24)          118.4892         0.354547   
     47. A(C   0,C   1,H  24)          119.4090         0.348208   
     48. A(C   0,C   1,C   2)          122.1016         0.430914   
     49. A(C   1,C   2,C   3)          120.7952         0.431591   
     50. A(C   3,C   2,H  25)          119.1556         0.348362   
     51. A(C   1,C   2,H  25)          120.0492         0.354181   
     52. A(C   2,C   3,C  14)          119.1598         0.418662   
     53. A(C   4,C   3,C  14)          119.0591         0.412740   
     54. A(C   2,C   3,C   4)          121.7800         0.418054   
     55. A(C   3,C   4,H  26)          118.4220         0.343657   
     56. A(C   5,C   4,H  26)          120.1415         0.357958   
     57. A(C   3,C   4,C   5)          121.4357         0.430290   
     58. A(C   6,C   5,H  27)          119.3683         0.343249   
     59. A(C   4,C   5,C   6)          121.7325         0.428792   
     60. A(C   4,C   5,H  27)          118.8966         0.358711   
     61. A(C   5,C   6,C   7)          122.2770         0.411131   
     62. A(C   7,C   6,C  15)          119.9408         0.411302   
     63. A(C   5,C   6,C  15)          117.7783         0.409484   
     64. A(C   6,C   7,C   8)          118.1702         0.418062   
     65. A(C   8,C   7,C  17)          120.6528         0.408593   
     66. A(C   6,C   7,C  17)          121.1744         0.403637   
     67. A(C   9,C   8,H  28)          118.7901         0.353492   
     68. A(C   7,C   8,H  28)          119.1088         0.348256   
     69. A(C   7,C   8,C   9)          122.0705         0.429996   
     70. A(C  10,C   9,H  29)          119.1080         0.348829   
     71. A(C   8,C   9,H  29)          119.8736         0.353177   
     72. A(C   8,C   9,C  10)          121.0037         0.431157   
     73. A(C  11,C  10,C  15)          118.8645         0.413166   
     74. A(C   9,C  10,C  15)          118.9256         0.419717   
     75. A(C   9,C  10,C  11)          122.2076         0.418861   
     76. A(C  12,C  11,H  30)          119.8753         0.357970   
     77. A(C  10,C  11,C  12)          121.6948         0.430470   
     78. A(C  10,C  11,H  30)          118.4299         0.343678   
     79. A(C  11,C  12,H  31)          118.2886         0.358915   
     80. A(C  11,C  12,C  13)          121.7082         0.428347   
     81. A(C  13,C  12,H  31)          120.0031         0.342983   
     82. A(C   0,C  13,C  12)          123.0841         0.410002   
     83. A(C  12,C  13,C  14)          117.5356         0.408202   
     84. A(C   0,C  13,C  14)          119.3803         0.409886   
     85. A(C  13,C  14,C  15)          120.7850         0.408979   
     86. A(C   3,C  14,C  15)          119.2743         0.411601   
     87. A(C   3,C  14,C  13)          119.9407         0.410701   
     88. A(C  10,C  15,C  14)          119.4107         0.411935   
     89. A(C   6,C  15,C  14)          120.7088         0.409764   
     90. A(C   6,C  15,C  10)          119.8800         0.411824   
     91. A(C  18,C  16,H  32)          115.7296         0.360352   
     92. A(C   0,C  16,H  32)          117.0457         0.338180   
     93. A(C   0,C  16,C  18)          127.2246         0.424515   
     94. A(C  19,C  17,H  33)          115.8821         0.362003   
     95. A(C   7,C  17,H  33)          118.9136         0.336840   
     96. A(C   7,C  17,C  19)          125.2040         0.425608   
     97. A(C  20,C  18,H  34)          115.5377         0.344866   
     98. A(C  16,C  18,H  34)          122.2726         0.359746   
     99. A(C  16,C  18,C  20)          122.1895         0.434289   
    100. A(O  21,C  19,H  35)          115.8898         0.352003   
    101. A(C  17,C  19,H  35)          122.5211         0.360742   
    102. A(C  17,C  19,O  21)          121.5877         0.447861   
    103. L(C  18,C  20,N  23,H  34, 2) 179.8815         0.481506   
    104. L(C  18,C  20,N  23,H  34, 1) 179.0705         0.481506   
    105. A(C  19,O  21,C  22)          116.7933         0.417661   
    106. A(H  37,C  22,H  38)          108.8976         0.285729   
    107. A(H  36,C  22,H  38)          108.8021         0.286871   
    108. A(O  21,C  22,H  38)          111.5394         0.336323   
    109. A(H  36,C  22,H  37)          108.8623         0.286918   
    110. A(O  21,C  22,H  37)          111.5811         0.336382   
    111. A(O  21,C  22,H  36)          107.0771         0.337818   
    112. D(H  24,C   1,C   0,C  16)      0.2325         0.022778   
    113. D(H  24,C   1,C   0,C  13)   -179.8142         0.022778   
    114. D(C   2,C   1,C   0,C  16)   -179.9397         0.022778   
    115. D(C   2,C   1,C   0,C  13)      0.0136         0.022778   
    116. D(H  25,C   2,C   1,C   0)   -179.8349         0.028541   
    117. D(C   3,C   2,C   1,H  24)    179.9406         0.028541   
    118. D(C   3,C   2,C   1,C   0)      0.1113         0.028541   
    119. D(H  25,C   2,C   1,H  24)     -0.0056         0.028541   
    120. D(C  14,C   3,C   2,H  25)    179.9403         0.023198   
    121. D(C  14,C   3,C   2,C   1)     -0.0063         0.023198   
    122. D(C   4,C   3,C   2,H  25)      0.3103         0.023198   
    123. D(C   4,C   3,C   2,C   1)   -179.6363         0.023198   
    124. D(H  26,C   4,C   3,C   2)      0.3965         0.019645   
    125. D(C   5,C   4,C   3,C   2)   -179.9247         0.019645   
    126. D(C   5,C   4,C   3,C  14)      0.4450         0.019645   
    127. D(H  26,C   4,C   3,C  14)   -179.2339         0.019645   
    128. D(H  27,C   5,C   4,H  26)      0.6591         0.032695   
    129. D(C   6,C   5,C   4,C   3)      0.4002         0.032695   
    130. D(C   6,C   5,C   4,H  26)   -179.9263         0.032695   
    131. D(H  27,C   5,C   4,C   3)   -179.0143         0.032695   
    132. D(C  15,C   6,C   5,H  27)    178.2646         0.018877   
    133. D(C   7,C   6,C   5,H  27)     -1.0155         0.018877   
    134. D(C   7,C   6,C   5,C   4)    179.5727         0.018877   
    135. D(C  15,C   6,C   5,C   4)     -1.1472         0.018877   
    136. D(C  17,C   7,C   6,C  15)    179.4303         0.019872   
    137. D(C  17,C   7,C   6,C   5)     -1.3047         0.019872   
    138. D(C   8,C   7,C   6,C  15)      0.0066         0.019872   
    139. D(C   8,C   7,C   6,C   5)    179.2716         0.019872   
    140. D(H  28,C   8,C   7,C   6)    177.1168         0.022934   
    141. D(C   9,C   8,C   7,C  17)    179.7280         0.022934   
    142. D(C   9,C   8,C   7,C   6)     -0.8451         0.022934   
    143. D(H  28,C   8,C   7,C  17)     -2.3101         0.022934   
    144. D(H  29,C   9,C   8,H  28)      1.6857         0.027634   
    145. D(H  29,C   9,C   8,C   7)    179.6538         0.027634   
    146. D(C  10,C   9,C   8,H  28)   -176.9119         0.027634   
    147. D(C  10,C   9,C   8,C   7)      1.0563         0.027634   
    148. D(C  15,C  10,C   9,H  29)   -179.0015         0.023667   
    149. D(C  15,C  10,C   9,C   8)     -0.3933         0.023667   
    150. D(C  11,C  10,C   9,H  29)      0.4466         0.023667   
    151. D(C  11,C  10,C   9,C   8)    179.0547         0.023667   
    152. D(H  30,C  11,C  10,C  15)    179.8683         0.019696   
    153. D(H  30,C  11,C  10,C   9)      0.4199         0.019696   
    154. D(C  12,C  11,C  10,C  15)     -0.0671         0.019696   
    155. D(C  12,C  11,C  10,C   9)   -179.5155         0.019696   
    156. D(H  31,C  12,C  11,H  30)     -0.0289         0.032772   
    157. D(H  31,C  12,C  11,C  10)    179.9055         0.032772   
    158. D(C  13,C  12,C  11,H  30)    179.9232         0.032772   
    159. D(C  13,C  12,C  11,C  10)     -0.1424         0.032772   
    160. D(C  14,C  13,C  12,H  31)   -179.9884         0.018614   
    161. D(C   0,C  13,C  12,H  31)     -0.0209         0.018614   
    162. D(C   0,C  13,C  12,C  11)   -179.9722         0.018614   
    163. D(C  14,C  13,C   0,C  16)    179.7151         0.019522   
    164. D(C  14,C  13,C   0,C   1)     -0.2379         0.019522   
    165. D(C  14,C  13,C  12,C  11)      0.0603         0.018614   
    166. D(C  12,C  13,C   0,C  16)     -0.2519         0.019522   
    167. D(C  12,C  13,C   0,C   1)    179.7951         0.019522   
    168. D(C   3,C  14,C  13,C  12)   -179.6897         0.018553   
    169. D(C   3,C  14,C  13,C   0)      0.3415         0.018553   
    170. D(C  15,C  14,C   3,C   4)     -0.5002         0.019978   
    171. D(C  15,C  14,C   3,C   2)    179.8596         0.019978   
    172. D(C  13,C  14,C   3,C   4)    179.4207         0.019978   
    173. D(C  15,C  14,C  13,C   0)   -179.7387         0.018553   
    174. D(C  13,C  14,C   3,C   2)     -0.2194         0.019978   
    175. D(C  15,C  14,C  13,C  12)      0.2301         0.018553   
    176. D(C  10,C  15,C  14,C  13)     -0.4362         0.019028   
    177. D(C   6,C  15,C  14,C  13)    179.8128         0.019028   
    178. D(C   6,C  15,C  14,C   3)     -0.2669         0.019028   
    179. D(C  14,C  15,C  10,C  11)      0.3512         0.020167   
    180. D(C  14,C  15,C  10,C   9)    179.8179         0.020167   
    181. D(C   6,C  15,C  10,C  11)   -179.8957         0.020167   
    182. D(C   6,C  15,C  10,C   9)     -0.4290         0.020167   
    183. D(C  14,C  15,C   6,C   7)   -179.6336         0.018969   
    184. D(C  14,C  15,C   6,C   5)      1.0688         0.018969   
    185. D(C  10,C  15,C  14,C   3)    179.4841         0.019028   
    186. D(C  10,C  15,C   6,C   7)      0.6165         0.018969   
    187. D(C  10,C  15,C   6,C   5)   -178.6811         0.018969   
    188. D(H  32,C  16,C   0,C  13)      1.0806         0.015864   
    189. D(H  32,C  16,C   0,C   1)   -178.9672         0.015864   
    190. D(C  18,C  16,C   0,C  13)   -178.8143         0.015864   
    191. D(C  18,C  16,C   0,C   1)      1.1379         0.015864   
    192. D(H  33,C  17,C   7,C   8)    155.2115         0.015300   
    193. D(H  33,C  17,C   7,C   6)    -24.1979         0.015300   
    194. D(C  19,C  17,C   7,C   8)    -24.9846         0.015300   
    195. D(C  19,C  17,C   7,C   6)    155.6060         0.015300   
    196. D(H  34,C  18,C  16,H  32)   -179.8247         0.034883   
    197. D(H  34,C  18,C  16,C   0)      0.0714         0.034883   
    198. D(C  20,C  18,C  16,H  32)      0.0124         0.034883   
    199. D(C  20,C  18,C  16,C   0)    179.9085         0.034883   
    200. D(H  35,C  19,C  17,H  33)    176.7053         0.037439   
    201. D(H  35,C  19,C  17,C   7)     -3.1039         0.037439   
    202. D(O  21,C  19,C  17,H  33)     -2.8492         0.037439   
    203. D(O  21,C  19,C  17,C   7)    177.3416         0.037439   
    204. D(C  22,O  21,C  19,H  35)     -6.3141         0.031472   
    205. D(C  22,O  21,C  19,C  17)    173.2683         0.031472   
    206. D(H  38,C  22,O  21,C  19)     58.2098         0.020685   
    207. D(H  37,C  22,O  21,C  19)    -63.8339         0.020685   
    208. D(H  36,C  22,O  21,C  19)    177.1395         0.020685   
    -----------------------------------------------------------------

Number of atoms                         .... 39
Number of degrees of freedom            .... 208

         *************************************************************
         *                GEOMETRY OPTIMIZATION CYCLE   1            *
         *************************************************************
---------------------------------
CARTESIAN COORDINATES (ANGSTROEM)
---------------------------------
  C     -7.217413    3.478866   -0.268637
  C     -5.951446    4.103154   -0.226802
  C     -4.776323    3.377690   -0.151212
  C     -4.799086    1.968572   -0.114946
  C     -3.596265    1.197053   -0.029071
  C     -3.626430   -0.168070    0.004087
  C     -4.862545   -0.898294   -0.053870
  C     -4.907145   -2.327436   -0.029002
  C     -6.170124   -2.955485   -0.074641
  C     -7.351812   -2.230600   -0.124685
  C     -7.338473   -0.823808   -0.154287
  C     -8.540914   -0.050883   -0.225954
  C     -8.515333    1.313914   -0.263932
  C     -7.278568    2.048265   -0.230912
  C     -6.056944    1.291036   -0.157170
  C     -6.082847   -0.144141   -0.123437
  C     -8.433983    4.282406   -0.349699
  C     -3.678602   -3.123684    0.029252
  C     -8.521629    5.635728   -0.414756
  C     -3.588494   -4.380264    0.511268
  C     -9.773826    6.312825   -0.493266
  O     -2.428344   -5.066513    0.481656
  C     -2.409668   -6.316367    1.144059
  N    -10.786674    6.881919   -0.558944
  H     -5.890018    5.192708   -0.251746
  H     -3.814269    3.895854   -0.117921
  H     -2.640511    1.726370    0.015428
  H     -2.686419   -0.713893    0.086190
  H     -6.220403   -4.046156   -0.104461
  H     -8.310985   -2.754515   -0.164817
  H     -9.498454   -0.578732   -0.251412
  H     -9.463969    1.846744   -0.319855
  H     -9.383411    3.745211   -0.361524
  H     -2.747526   -2.685937   -0.338160
  H     -7.637151    6.278923   -0.413083
  H     -4.444560   -4.904729    0.956018
  H     -1.416711   -6.755071    0.977106
  H     -2.571838   -6.202641    2.231445
  H     -3.175316   -7.002600    0.737684

----------------------------
CARTESIAN COORDINATES (A.U.)
----------------------------
  NO LB      ZA    FRAG     MASS         X           Y           Z
   0 C     6.0000    0    12.011  -13.638934    6.574104   -0.507650
   1 C     6.0000    0    12.011  -11.246603    7.753837   -0.428594
   2 C     6.0000    0    12.011   -9.025942    6.382909   -0.285749
   3 C     6.0000    0    12.011   -9.068958    3.720062   -0.217216
   4 C     6.0000    0    12.011   -6.795956    2.262102   -0.054936
   5 C     6.0000    0    12.011   -6.852960   -0.317606    0.007723
   6 C     6.0000    0    12.011   -9.188878   -1.697530   -0.101800
   7 C     6.0000    0    12.011   -9.273160   -4.398217   -0.054806
   8 C     6.0000    0    12.011  -11.659845   -5.585057   -0.141051
   9 C     6.0000    0    12.011  -13.892911   -4.215223   -0.235621
  10 C     6.0000    0    12.011  -13.867704   -1.556772   -0.291560
  11 C     6.0000    0    12.011  -16.139988   -0.096155   -0.426991
  12 C     6.0000    0    12.011  -16.091647    2.482938   -0.498759
  13 C     6.0000    0    12.011  -13.754500    3.870660   -0.436360
  14 C     6.0000    0    12.011  -11.445965    2.439704   -0.297008
  15 C     6.0000    0    12.011  -11.494915   -0.272387   -0.233262
  16 C     6.0000    0    12.011  -15.937918    8.092575   -0.660835
  17 C     6.0000    0    12.011   -6.951550   -5.902907    0.055278
  18 C     6.0000    0    12.011  -16.103545   10.649982   -0.783775
  19 C     6.0000    0    12.011   -6.781271   -8.277499    0.966157
  20 C     6.0000    0    12.011  -18.469854   11.929510   -0.932138
  21 O     8.0000    0    15.999   -4.588905   -9.574322    0.910198
  22 C     6.0000    0    12.011   -4.553613  -11.936204    2.161958
  23 N     7.0000    0    14.007  -20.383860   13.004942   -1.056251
  24 H     1.0000    0     1.008  -11.130521    9.812796   -0.475731
  25 H     1.0000    0     1.008   -7.207924    7.362097   -0.222838
  26 H     1.0000    0     1.008   -4.989843    3.262367    0.029155
  27 H     1.0000    0     1.008   -5.076596   -1.349062    0.162875
  28 H     1.0000    0     1.008  -11.754858   -7.646127   -0.197403
  29 H     1.0000    0     1.008  -15.705486   -5.205279   -0.311459
  30 H     1.0000    0     1.008  -17.949477   -1.093645   -0.475100
  31 H     1.0000    0     1.008  -17.884310    3.489840   -0.604438
  32 H     1.0000    0     1.008  -17.732077    7.077423   -0.683181
  33 H     1.0000    0     1.008   -5.192072   -5.075685   -0.639030
  34 H     1.0000    0     1.008  -14.432124   11.865445   -0.780614
  35 H     1.0000    0     1.008   -8.399001   -9.268595    1.806612
  36 H     1.0000    0     1.008   -2.677196  -12.765234    1.846463
  37 H     1.0000    0     1.008   -4.860069  -11.721293    4.216820
  38 H     1.0000    0     1.008   -6.000478  -13.232996    1.394021

--------------------------------
INTERNAL COORDINATES (ANGSTROEM)
--------------------------------
 C      0   0   0     0.000000000000     0.00000000     0.00000000
 C      1   0   0     1.412146635183     0.00000000     0.00000000
 C      2   1   0     1.383085654804   122.10158308     0.00000000
 C      3   2   1     1.409768390499   120.79519839     0.11133274
 C      4   3   2     1.431570620342   121.78004681   180.36366514
 C      5   4   3     1.365858772098   121.43572423   180.07533023
 C      6   5   4     1.436859908707   121.73253737     0.40023886
 C      7   6   5     1.430053996739   122.27700471   179.57270605
 C      8   7   6     1.411256326527   118.17024009   179.27156491
 C      9   8   7     1.387209138704   122.07045583   359.15487482
 C     10   9   8     1.407166634976   121.00374068     1.05625868
 C     11  10   9     1.431227994764   122.20762037   179.05472645
 C     12  11  10     1.365564926049   121.69475562   180.48454440
 C      1   2   3     1.432404388031   118.62154902     0.00000000
 C      4   3   2     1.429351127483   119.15981003     0.00000000
 C     11  10   9     1.428109101317   118.92564788   359.60666606
 C      1   2   3     1.460236331675   120.34886874   180.06026643
 C      8   7   6     1.465169720158   121.17441887   358.69525967
 C     17   1   2     1.357716712075   127.22463916     1.13791112
 C     18   8   7     1.348870702595   125.20400597   155.60595700
 C     19  17   1     1.425700352219   122.18953598   179.90851687
 O     20  18   8     1.348244259415   121.58770445   177.34157916
 C     22  20  18     1.414659516881   116.79331104   173.26834940
 N     21  19  17     1.163633383684   179.06885011   183.62506781
 H      2   1   3     1.091569292915   119.40901485   180.17222508
 H      3   2   1     1.093229216813   120.04919755   180.16512359
 H      5   4   3     1.093445177412   118.42200235     0.39646280
 H      6   5   4     1.090084551794   118.89659709   180.98571553
 H      9   8   7     1.092236439825   119.10881936   177.11675568
 H     10   9   8     1.093668299156   119.87362357   179.65384178
 H     12  11  10     1.093688954029   118.42991903     0.41989389
 H     13  12  11     1.089470261790   118.28864805   179.90552787
 H     17   1   2     1.090931632062   117.04568276   181.03281655
 H     18   8   7     1.092481822059   118.91358658   335.80206838
 H     19  17   1     1.093619650261   122.27261575     0.07141780
 H     20  18   8     1.098050588580   122.52113856   356.89608883
 H     23  22  20     1.098316032695   107.07712571   177.13946268
 H     23  22  20     1.105278709182   111.58113015   296.16608529
 H     23  22  20     1.105564666050   111.53940952    58.20984665

---------------------------
INTERNAL COORDINATES (A.U.)
---------------------------
 C      0   0   0     0.000000000000     0.00000000     0.00000000
 C      1   0   0     2.668570401434     0.00000000     0.00000000
 C      2   1   0     2.613653107335   122.10158308     0.00000000
 C      3   2   1     2.664076170301   120.79519839     0.11133274
 C      4   3   2     2.705276413815   121.78004681   180.36366514
 C      5   4   3     2.581099016880   121.43572423   180.07533023
 C      6   5   4     2.715271720268   121.73253737     0.40023886
 C      7   6   5     2.702410410555   122.27700471   179.57270605
 C      8   7   6     2.666887961900   118.17024009   179.27156491
 C      9   8   7     2.621445362624   122.07045583   359.15487482
 C     10   9   8     2.659159564896   121.00374068     1.05625868
 C     11  10   9     2.704628945304   122.20762037   179.05472645
 C     12  11  10     2.580543728320   121.69475562   180.48454440
 C      1   2   3     2.706852006406   118.62154902     0.00000000
 C      4   3   2     2.701082180154   119.15981003     0.00000000
 C     11  10   9     2.698735090850   118.92564788   359.60666606
 C      1   2   3     2.759446757668   120.34886874   180.06026643
 C      8   7   6     2.768769510813   121.17441887   358.69525967
 C     17   1   2     2.565712753271   127.22463916     1.13791112
 C     18   8   7     2.548996217975   125.20400597   155.60595700
 C     19  17   1     2.694183214729   122.18953598   179.90851687
 O     20  18   8     2.547812411925   121.58770445   177.34157916
 C     22  20  18     2.673319059650   116.79331104   173.26834940
 N     21  19  17     2.198948415451   179.06885011   183.62506781
 H      2   1   3     2.062767019808   119.40901485   180.17222508
 H      3   2   1     2.065903821377   120.04919755   180.16512359
 H      5   4   3     2.066311927766   118.42200235     0.39646280
 H      6   5   4     2.059961265708   118.89659709   180.98571553
 H      9   8   7     2.064027744759   119.10881936   177.11675568
 H     10   9   8     2.066733566756   119.87362357   179.65384178
 H     12  11  10     2.066772598810   118.42991903     0.41989389
 H     13  12  11     2.058800425835   118.28864805   179.90552787
 H     17   1   2     2.061562015429   117.04568276   181.03281655
 H     18   8   7     2.064491449978   118.91358658   335.80206838
 H     19  17   1     2.066641633669   122.27261575     0.07141780
 H     20  18   8     2.075014893607   122.52113856   356.89608883
 H     23  22  20     2.075516510288   107.07712571   177.13946268
 H     23  22  20     2.088674062009   111.58113015   296.16608529
 H     23  22  20     2.089214442174   111.53940952    58.20984665

---------------------
BASIS SET INFORMATION
---------------------
There are 4 groups of distinct atoms

 Group   1 Type C   : 7s4p1d contracted to 3s2p1d pattern {511/31/1}
 Group   2 Type O   : 7s4p1d contracted to 3s2p1d pattern {511/31/1}
 Group   3 Type N   : 7s4p1d contracted to 3s2p1d pattern {511/31/1}
 Group   4 Type H   : 4s1p contracted to 2s1p pattern {31/1}

Atom   0C    basis set group =>   1
Atom   1C    basis set group =>   1
Atom   2C    basis set group =>   1
Atom   3C    basis set group =>   1
Atom   4C    basis set group =>   1
Atom   5C    basis set group =>   1
Atom   6C    basis set group =>   1
Atom   7C    basis set group =>   1
Atom   8C    basis set group =>   1
Atom   9C    basis set group =>   1
Atom  10C    basis set group =>   1
Atom  11C    basis set group =>   1
Atom  12C    basis set group =>   1
Atom  13C    basis set group =>   1
Atom  14C    basis set group =>   1
Atom  15C    basis set group =>   1
Atom  16C    basis set group =>   1
Atom  17C    basis set group =>   1
Atom  18C    basis set group =>   1
Atom  19C    basis set group =>   1
Atom  20C    basis set group =>   1
Atom  21O    basis set group =>   2
Atom  22C    basis set group =>   1
Atom  23N    basis set group =>   3
Atom  24H    basis set group =>   4
Atom  25H    basis set group =>   4
Atom  26H    basis set group =>   4
Atom  27H    basis set group =>   4
Atom  28H    basis set group =>   4
Atom  29H    basis set group =>   4
Atom  30H    basis set group =>   4
Atom  31H    basis set group =>   4
Atom  32H    basis set group =>   4
Atom  33H    basis set group =>   4
Atom  34H    basis set group =>   4
Atom  35H    basis set group =>   4
Atom  36H    basis set group =>   4
Atom  37H    basis set group =>   4
Atom  38H    basis set group =>   4
---------------------------------
AUXILIARY/J BASIS SET INFORMATION
---------------------------------
There are 4 groups of distinct atoms

 Group   1 Type C   : 12s5p4d2f1g contracted to 6s4p3d1f1g pattern {711111/2111/211/2/1}
 Group   2 Type O   : 12s5p4d2f1g contracted to 6s4p3d1f1g pattern {711111/2111/211/2/1}
 Group   3 Type N   : 12s5p4d2f1g contracted to 6s4p3d1f1g pattern {711111/2111/211/2/1}
 Group   4 Type H   : 5s2p1d contracted to 3s1p1d pattern {311/2/1}

Atom   0C    basis set group =>   1
Atom   1C    basis set group =>   1
Atom   2C    basis set group =>   1
Atom   3C    basis set group =>   1
Atom   4C    basis set group =>   1
Atom   5C    basis set group =>   1
Atom   6C    basis set group =>   1
Atom   7C    basis set group =>   1
Atom   8C    basis set group =>   1
Atom   9C    basis set group =>   1
Atom  10C    basis set group =>   1
Atom  11C    basis set group =>   1
Atom  12C    basis set group =>   1
Atom  13C    basis set group =>   1
Atom  14C    basis set group =>   1
Atom  15C    basis set group =>   1
Atom  16C    basis set group =>   1
Atom  17C    basis set group =>   1
Atom  18C    basis set group =>   1
Atom  19C    basis set group =>   1
Atom  20C    basis set group =>   1
Atom  21O    basis set group =>   2
Atom  22C    basis set group =>   1
Atom  23N    basis set group =>   3
Atom  24H    basis set group =>   4
Atom  25H    basis set group =>   4
Atom  26H    basis set group =>   4
Atom  27H    basis set group =>   4
Atom  28H    basis set group =>   4
Atom  29H    basis set group =>   4
Atom  30H    basis set group =>   4
Atom  31H    basis set group =>   4
Atom  32H    basis set group =>   4
Atom  33H    basis set group =>   4
Atom  34H    basis set group =>   4
Atom  35H    basis set group =>   4
Atom  36H    basis set group =>   4
Atom  37H    basis set group =>   4
Atom  38H    basis set group =>   4


           ************************************************************
           *        Program running with 8 parallel MPI-processes     *
           *              working on a common directory               *
           ************************************************************
------------------------------------------------------------------------------
                           ORCA GTO INTEGRAL CALCULATION
                           -- RI-GTO INTEGRALS CHOSEN --
------------------------------------------------------------------------------
------------------------------------------------------------------------------
                   ___                                                        
                  /   \      - P O W E R E D   B Y -                         
                 /     \                                                     
                 |  |  |   _    _      __       _____    __    __             
                 |  |  |  | |  | |    /  \     |  _  \  |  |  /  |          
                  \  \/   | |  | |   /    \    | | | |  |  | /  /          
                 / \  \   | |__| |  /  /\  \   | |_| |  |  |/  /          
                |  |  |   |  __  | /  /__\  \  |    /   |      \           
                |  |  |   | |  | | |   __   |  |    \   |  |\   \          
                \     /   | |  | | |  |  |  |  | |\  \  |  | \   \       
                 \___/    |_|  |_| |__|  |__|  |_| \__\ |__|  \__/        
                                                                              
                      - O R C A' S   B I G   F R I E N D -                    
                                      &                                       
                       - I N T E G R A L  F E E D E R -                       
                                                                              
 v1 FN, 2020, v2 2021                                                         
------------------------------------------------------------------------------


Reading SHARK input file NC_OMe_2.SHARKINP.tmp ... ok
----------------------
SHARK INTEGRAL PACKAGE
----------------------

Number of atoms                             ...     39
Number of basis functions                   ...    411
Number of shells                            ...    189
Maximum angular momentum                    ...      2
Integral batch strategy                     ... SHARK/LIBINT Hybrid
RI-J (if used) integral strategy            ... SPLIT-RIJ (Revised 2003 algorithm where possible)
Printlevel                                  ...      1
Contraction scheme used                     ... SEGMENTED contraction
Coulomb Range Separation                    ... NOT USED
Exchange Range Separation                   ... NOT USED
Finite Nucleus Model                        ... NOT USED
Auxiliary Coulomb fitting basis             ... AVAILABLE
   # of basis functions in Aux-J            ...   1341
   # of shells in Aux-J                     ...    435
   Maximum angular momentum in Aux-J        ...      4
Auxiliary J/K fitting basis                 ... NOT available
Auxiliary Correlation fitting basis         ... NOT available
Auxiliary 'external' fitting basis          ... NOT available
Integral threshold                          ...     1.000000e-12
Primitive cut-off                           ...     1.000000e-14
Primitive pair pre-selection threshold      ...     1.000000e-14

Calculating pre-screening integrals         ... done (  0.0 sec) Dimension = 189
Organizing shell pair data                  ... done (  1.1 sec)
Shell pair information
Total number of shell pairs                 ...     17955
Shell pairs after pre-screening             ...     12812
Total number of primitive shell pairs       ...     66423
Primitive shell pairs kept                  ...     30666
          la=0 lb=0:   3783 shell pairs
          la=1 lb=0:   4705 shell pairs
          la=1 lb=1:   1506 shell pairs
          la=2 lb=0:   1608 shell pairs
          la=2 lb=1:   1020 shell pairs
          la=2 lb=2:    190 shell pairs

Calculating one electron integrals          ... done (  0.0 sec)
Calculating RI/J V-Matrix + Cholesky decomp.... done (  1.2 sec)
Calculating Nuclear repulsion               ... done (  0.0 sec) ENN=   1735.562056091139 Eh

SHARK setup successfully completed in   3.2 seconds

Maximum memory used throughout the entire GTOINT-calculation: 23.2 MB


           ************************************************************
           *        Program running with 8 parallel MPI-processes     *
           *              working on a common directory               *
           ************************************************************
-------------------------------------------------------------------------------
                                 ORCA SCF
-------------------------------------------------------------------------------

------------
SCF SETTINGS
------------
Hamiltonian:
 Density Functional     Method          .... DFT(GTOs)
 Exchange Functional    Exchange        .... B88
   X-Alpha parameter    XAlpha          ....  0.666667
   Becke's b parameter  XBeta           ....  0.004200
 Correlation Functional Correlation     .... LYP
 LDA part of GGA corr.  LDAOpt          .... VWN-5
 Gradients option       PostSCFGGA      .... off
 Hybrid DFT is turned on
   Fraction HF Exchange ScalHFX         ....  0.200000
   Scaling of DF-GGA-X  ScalDFX         ....  0.720000
   Scaling of DF-GGA-C  ScalDFC         ....  0.810000
   Scaling of DF-LDA-C  ScalLDAC        ....  1.000000
   Perturbative correction              ....  0.000000
   Density functional embedding theory  .... OFF
   NL short-range parameter             ....  4.800000
 RI-approximation to the Coulomb term is turned on
   Number of AuxJ basis functions       .... 1341
   RIJ-COSX (HFX calculated with COS-X)).... on


General Settings:
 Integral files         IntName         .... NC_OMe_2
 Hartree-Fock type      HFTyp           .... RHF
 Total Charge           Charge          ....    0
 Multiplicity           Mult            ....    1
 Number of Electrons    NEL             ....  162
 Basis Dimension        Dim             ....  411
 Nuclear Repulsion      ENuc            ....   1735.5620560911 Eh

Convergence Acceleration:
 DIIS                   CNVDIIS         .... on
   Start iteration      DIISMaxIt       ....     0
   Startup error        DIISStart       ....  0.200000
   # of expansion vecs  DIISMaxEq       ....     5
   Bias factor          DIISBfac        ....   1.050
   Max. coefficient     DIISMaxC        ....  10.000
 Trust-Rad. Augm. Hess. CNVTRAH         .... auto
   Auto Start mean grad. ratio tolernc. ....  1.125000
   Auto Start start iteration           ....    20
   Auto Start num. interpolation iter.  ....    10
   Max. Number of Micro iterations      ....    16
   Max. Number of Macro iterations      .... Maxiter - #DIIS iter
   Number of Davidson start vectors     ....     2
   Converg. threshold I  (grad. norm)   ....   2.000e-06
   Converg. threshold II (energy diff.) ....   1.000e-09
   Grad. Scal. Fac. for Micro threshold ....   0.100
   Minimum threshold for Micro iter.    ....   0.010
   NR start threshold (gradient norm)   ....   0.001
   Initial trust radius                 ....   0.400
   Minimum AH scaling param. (alpha)    ....   1.000
   Maximum AH scaling param. (alpha)    .... 1000.000
   Orbital update algorithm             .... Taylor
   White noise on init. David. guess    .... on
   Maximum white noise                  ....   0.010
   Quad. conv. algorithm                .... NR
 SOSCF                  CNVSOSCF        .... on
   Start iteration      SOSCFMaxIt      ....   150
   Startup grad/error   SOSCFStart      ....  0.001000
 Level Shifting         CNVShift        .... on
   Level shift para.    LevelShift      ....    0.2500
   Turn off err/grad.   ShiftErr        ....    0.0000
 Zerner damping         CNVZerner       .... off
 Static damping         CNVDamp         .... on
   Fraction old density DampFac         ....    0.8500
   Max. Damping (<1)    DampMax         ....    0.9800
   Min. Damping (>=0)   DampMin         ....    0.0000
   Turn off err/grad.   DampErr         ....    0.0300
 Fernandez-Rico         CNVRico         .... off

SCF Procedure:
 Maximum # iterations   MaxIter         ....   125
 SCF integral mode      SCFMode         .... Direct
   Integral package                     .... SHARK and LIBINT hybrid scheme
 Reset frequency        DirectResetFreq ....    20
 Integral Threshold     Thresh          ....  1.000e-12 Eh
 Primitive CutOff       TCut            ....  1.000e-14 Eh

Convergence Tolerance:
 Convergence Check Mode ConvCheckMode   .... Total+1el-Energy
 Convergence forced     ConvForced      .... 0
 Energy Change          TolE            ....  1.000e-09 Eh
 1-El. energy change                    ....  1.000e-06 Eh
 Orbital Gradient       TolG            ....  2.000e-06
 Orbital Rotation angle TolX            ....  2.000e-06
 DIIS Error             TolErr          ....  1.000e-08


Diagonalization of the overlap matrix:
Smallest eigenvalue                        ... 1.995e-04
Time for diagonalization                   ...    0.035 sec
Threshold for overlap eigenvalues          ... 1.000e-08
Number of eigenvalues below threshold      ... 0
Time for construction of square roots      ...    0.085 sec
Total time needed                          ...    0.121 sec

Time for model grid setup =    0.368 sec

------------------------------
INITIAL GUESS: MODEL POTENTIAL
------------------------------
Loading Hartree-Fock densities                     ... done
Calculating cut-offs                               ... done
Initializing the effective Hamiltonian             ... done
Setting up the integral package (SHARK)            ... done
Starting the Coulomb interaction                   ... done (   0.2 sec)
Reading the grid                                   ... done
Mapping shells                                     ... done
Starting the XC term evaluation                    ... done (   0.1 sec)
  promolecular density results
     # of electrons  =    161.990207518
     EX              =   -132.279320568
     EC              =     -5.487472918
     EX+EC           =   -137.766793486
Transforming the Hamiltonian                       ... done (   0.0 sec)
Diagonalizing the Hamiltonian                      ... done (   0.0 sec)
Back transforming the eigenvectors                 ... done (   0.0 sec)
Now organizing SCF variables                       ... done
                      ------------------
                      INITIAL GUESS DONE (   0.8 sec)
                      ------------------
-------------------
DFT GRID GENERATION
-------------------

General Integration Accuracy     IntAcc      ... 4.959
Radial Grid Type                 RadialGrid  ... OptM3 with GC (2021)
Angular Grid (max. ang.)         AngularGrid ... 6 (Lebedev-590)
Angular grid pruning method      GridPruning ... 4 (adaptive)
Weight generation scheme         WeightScheme... Becke
Basis function cutoff            BFCut       ... 1.0000e-12
Integration weight cutoff        WCut        ... 1.0000e-14
Angular grids for H and He will be reduced by one unit
Partially contracted basis set               ... off
Rotationally invariant grid construction     ... off

Total number of grid points                  ...   468250
Total number of batches                      ...     7337
Average number of points per batch           ...       63
Average number of grid points per atom       ...    12006
Time for grid setup =    9.606 sec

--------------------
COSX GRID GENERATION
--------------------

GRIDX 1
-------
General Integration Accuracy     IntAcc      ... 4.020
Radial Grid Type                 RadialGrid  ... OptM3 with GC (2021)
Angular Grid (max. ang.)         AngularGrid ... 2 (Lebedev-110)
Angular grid pruning method      GridPruning ... 4 (adaptive)
Weight generation scheme         WeightScheme... Becke
Basis function cutoff            BFCut       ... 1.0000e-12
Integration weight cutoff        WCut        ... 1.0000e-14
Angular grids for H and He will be reduced by one unit
Partially contracted basis set               ... on
Rotationally invariant grid construction     ... off

Total number of grid points                  ...    53221
Total number of batches                      ...      852
Average number of points per batch           ...       62
Average number of grid points per atom       ...     1365
UseSFitting                                  ... on

GRIDX 2
-------
General Integration Accuracy     IntAcc      ... 4.338
Radial Grid Type                 RadialGrid  ... OptM3 with GC (2021)
Angular Grid (max. ang.)         AngularGrid ... 3 (Lebedev-194)
Angular grid pruning method      GridPruning ... 4 (adaptive)
Weight generation scheme         WeightScheme... Becke
Basis function cutoff            BFCut       ... 1.0000e-12
Integration weight cutoff        WCut        ... 1.0000e-14
Angular grids for H and He will be reduced by one unit
Partially contracted basis set               ... on
Rotationally invariant grid construction     ... off

Total number of grid points                  ...   116856
Total number of batches                      ...     1844
Average number of points per batch           ...       63
Average number of grid points per atom       ...     2996
UseSFitting                                  ... on

GRIDX 3
-------
General Integration Accuracy     IntAcc      ... 4.871
Radial Grid Type                 RadialGrid  ... OptM3 with GC (2021)
Angular Grid (max. ang.)         AngularGrid ... 4 (Lebedev-302)
Angular grid pruning method      GridPruning ... 4 (adaptive)
Weight generation scheme         WeightScheme... Becke
Basis function cutoff            BFCut       ... 1.0000e-12
Integration weight cutoff        WCut        ... 1.0000e-14
Angular grids for H and He will be reduced by one unit
Partially contracted basis set               ... on
Rotationally invariant grid construction     ... off

Total number of grid points                  ...   216742
Total number of batches                      ...     3406
Average number of points per batch           ...       63
Average number of grid points per atom       ...     5557
UseSFitting                                  ... on

Time for X-Grid setup             =    7.729 sec

--------------
SCF ITERATIONS
--------------
ITER       Energy         Delta-E        Max-DP      RMS-DP      [F,P]     Damp
               ***  Starting incremental Fock matrix formation  ***
  0   -975.6142889758   0.000000000000 0.04515599  0.00096081  0.2302473 0.8500
  1   -975.7202489505  -0.105959974719 0.03964989  0.00086760  0.1562374 0.8500
                               ***Turning on DIIS***
  2   -975.7913544513  -0.071105500748 0.02810316  0.00068586  0.0925315 0.8500
  3   -975.8378951992  -0.046540747903 0.01383333  0.00047540  0.0533879 0.8500
  4   -975.8726526303  -0.034757431109 0.01178434  0.00036178  0.0418326 0.8500
  5   -975.8994814746  -0.026828844357 0.01038870  0.00029289  0.0369106 0.8500
  6   -975.9212051103  -0.021723635643 0.00910809  0.00024479  0.0318480 0.8500
  7   -975.9391768891  -0.017971778767 0.05315525  0.00138818  0.0267009 0.0000
  8   -976.0343932327  -0.095216343608 0.01412501  0.00010850  0.0171534 0.0000
  9   -976.0344542143  -0.000060981652 0.00565224  0.00004369  0.0161227 0.0000
 10   -976.0347313567  -0.000277142413 0.00130633  0.00001492  0.0045817 0.0000
 11   -976.0347558831  -0.000024526345 0.00049275  0.00000572  0.0014095 0.0000
                      *** Initiating the SOSCF procedure ***
                           *** Shutting down DIIS ***
                      *** Re-Reading the Fockian *** 
                      *** Removing any level shift *** 
ITER      Energy       Delta-E        Grad      Rot      Max-DP    RMS-DP
 12   -976.03475827  -0.0000023871  0.000060  0.000060  0.000109  0.000002
               *** Restarting incremental Fock matrix formation ***
 13   -976.03473646   0.0000218123  0.000038  0.000260  0.000082  0.000003
 14   -976.03473655  -0.0000000971  0.000028  0.000149  0.000078  0.000002
 15   -976.03473653   0.0000000272  0.000058  0.000090  0.000067  0.000001
 16   -976.03473657  -0.0000000416  0.000011  0.000042  0.000029  0.000000
 17   -976.03473657   0.0000000024  0.000013  0.000031  0.000019  0.000000
 18   -976.03473657  -0.0000000042  0.000001  0.000009  0.000007  0.000000
 19   -976.03473657   0.0000000005  0.000002  0.000007  0.000004  0.000000
                  ***Gradient check signals convergence***
              ***Rediagonalizing the Fockian in SOSCF/NRSCF***

               *****************************************************
               *                     SUCCESS                       *
               *           SCF CONVERGED AFTER  20 CYCLES          *
               *****************************************************

Old exchange energy                            =    -26.781303814 Eh
New exchange energy                            =    -26.781291025 Eh
Exchange energy change after final integration =      0.000012789 Eh
Total energy after final integration           =   -976.034723782 Eh
Final COS-X integration done in                =    18.845 sec

----------------
TOTAL SCF ENERGY
----------------

Total Energy       :         -976.03472378 Eh          -26559.25508 eV

Components:
Nuclear Repulsion  :         1735.56205609 Eh           47227.04452 eV
Electronic Energy  :        -2711.59677987 Eh          -73786.29960 eV
One Electron Energy:        -4767.21847612 Eh         -129722.60971 eV
Two Electron Energy:         2055.62169625 Eh           55936.31010 eV
Max COSX asymmetry :            0.00000046 Eh               0.00001 eV

Virial components:
Potential Energy   :        -1941.94386932 Eh          -52842.97917 eV
Kinetic Energy     :          965.90914553 Eh           26283.72409 eV
Virial Ratio       :            2.01048295


DFT components:
N(Alpha)           :       81.000005556658 electrons
N(Beta)            :       81.000005556658 electrons
N(Total)           :      162.000011113316 electrons
E(X)               :     -106.408478405150 Eh       
E(C)               :       -6.464063623651 Eh       
E(XC)              :     -112.872542028800 Eh       
DFET-embed. en.    :        0.000000000000 Eh       

---------------
SCF CONVERGENCE
---------------

  Last Energy change         ...   -3.5243e-10  Tolerance :   1.0000e-09
  Last MAX-Density change    ...    3.5527e-15  Tolerance :   1.0000e-08
  Last RMS-Density change    ...    4.3548e-17  Tolerance :   1.0000e-09
  Last Orbital Gradient      ...    3.1133e-07  Tolerance :   2.0000e-06
  Last Orbital Rotation      ...    1.6889e-06  Tolerance :   2.0000e-06

             **** THE GBW FILE WAS UPDATED (NC_OMe_2.gbw) ****
             **** DENSITY NC_OMe_2.scfp WAS UPDATED ****
             **** ENERGY FILE WAS UPDATED (NC_OMe_2.en.tmp) ****
             **** THE GBW FILE WAS UPDATED (NC_OMe_2.gbw) ****
             **** DENSITY NC_OMe_2.scfp WAS UPDATED ****
----------------
ORBITAL ENERGIES
----------------

  NO   OCC          E(Eh)            E(eV) 
   0   2.0000     -19.177327      -521.8416 
   1   2.0000     -14.313731      -389.4964 
   2   2.0000     -10.257450      -279.1194 
   3   2.0000     -10.255698      -279.0717 
   4   2.0000     -10.223548      -278.1969 
   5   2.0000     -10.221279      -278.1352 
   6   2.0000     -10.215653      -277.9820 
   7   2.0000     -10.214075      -277.9391 
   8   2.0000     -10.212150      -277.8867 
   9   2.0000     -10.211615      -277.8722 
  10   2.0000     -10.207951      -277.7725 
  11   2.0000     -10.207618      -277.7634 
  12   2.0000     -10.206132      -277.7230 
  13   2.0000     -10.205783      -277.7135 
  14   2.0000     -10.202655      -277.6284 
  15   2.0000     -10.201941      -277.6089 
  16   2.0000     -10.200790      -277.5776 
  17   2.0000     -10.200233      -277.5624 
  18   2.0000     -10.199760      -277.5496 
  19   2.0000     -10.199460      -277.5414 
  20   2.0000     -10.198767      -277.5226 
  21   2.0000     -10.198734      -277.5217 
  22   2.0000     -10.197471      -277.4873 
  23   2.0000     -10.189503      -277.2705 
  24   2.0000      -1.071761       -29.1641 
  25   2.0000      -0.893820       -24.3221 
  26   2.0000      -0.883399       -24.0385 
  27   2.0000      -0.858900       -23.3719 
  28   2.0000      -0.833470       -22.6799 
  29   2.0000      -0.820825       -22.3358 
  30   2.0000      -0.792502       -21.5651 
  31   2.0000      -0.784912       -21.3585 
  32   2.0000      -0.759363       -20.6633 
  33   2.0000      -0.746603       -20.3161 
  34   2.0000      -0.732577       -19.9344 
  35   2.0000      -0.721844       -19.6424 
  36   2.0000      -0.687069       -18.6961 
  37   2.0000      -0.656699       -17.8697 
  38   2.0000      -0.636521       -17.3206 
  39   2.0000      -0.629574       -17.1316 
  40   2.0000      -0.618027       -16.8174 
  41   2.0000      -0.598535       -16.2870 
  42   2.0000      -0.583625       -15.8812 
  43   2.0000      -0.550909       -14.9910 
  44   2.0000      -0.537772       -14.6335 
  45   2.0000      -0.533407       -14.5147 
  46   2.0000      -0.523842       -14.2545 
  47   2.0000      -0.512768       -13.9531 
  48   2.0000      -0.507122       -13.7995 
  49   2.0000      -0.497643       -13.5416 
  50   2.0000      -0.481212       -13.0945 
  51   2.0000      -0.477134       -12.9835 
  52   2.0000      -0.463467       -12.6116 
  53   2.0000      -0.453466       -12.3394 
  54   2.0000      -0.450287       -12.2529 
  55   2.0000      -0.439521       -11.9600 
  56   2.0000      -0.429261       -11.6808 
  57   2.0000      -0.423706       -11.5296 
  58   2.0000      -0.420142       -11.4326 
  59   2.0000      -0.409561       -11.1447 
  60   2.0000      -0.405776       -11.0417 
  61   2.0000      -0.401257       -10.9188 
  62   2.0000      -0.395312       -10.7570 
  63   2.0000      -0.385872       -10.5001 
  64   2.0000      -0.383847       -10.4450 
  65   2.0000      -0.369662       -10.0590 
  66   2.0000      -0.365958        -9.9582 
  67   2.0000      -0.362214        -9.8563 
  68   2.0000      -0.352382        -9.5888 
  69   2.0000      -0.348303        -9.4778 
  70   2.0000      -0.347167        -9.4469 
  71   2.0000      -0.340940        -9.2775 
  72   2.0000      -0.328906        -8.9500 
  73   2.0000      -0.322752        -8.7825 
  74   2.0000      -0.321877        -8.7587 
  75   2.0000      -0.296795        -8.0762 
  76   2.0000      -0.277280        -7.5452 
  77   2.0000      -0.266276        -7.2457 
  78   2.0000      -0.243075        -6.6144 
  79   2.0000      -0.235299        -6.4028 
  80   2.0000      -0.195539        -5.3209 
  81   0.0000      -0.089648        -2.4394 
  82   0.0000      -0.049691        -1.3522 
  83   0.0000      -0.039321        -1.0700 
  84   0.0000      -0.017447        -0.4747 
  85   0.0000       0.004599         0.1251 
  86   0.0000       0.021625         0.5884 
  87   0.0000       0.037642         1.0243 
  88   0.0000       0.050350         1.3701 
  89   0.0000       0.060936         1.6581 
  90   0.0000       0.062239         1.6936 
  91   0.0000       0.065877         1.7926 
  92   0.0000       0.074204         2.0192 
  93   0.0000       0.083691         2.2773 
  94   0.0000       0.091065         2.4780 
  95   0.0000       0.099771         2.7149 
  96   0.0000       0.101057         2.7499 
  97   0.0000       0.105401         2.8681 
  98   0.0000       0.112541         3.0624 
  99   0.0000       0.119249         3.2449 
 100   0.0000       0.121912         3.3174 
 101   0.0000       0.125707         3.4207 
 102   0.0000       0.128432         3.4948 
 103   0.0000       0.151734         4.1289 
 104   0.0000       0.157345         4.2816 
 105   0.0000       0.168323         4.5803 
 106   0.0000       0.178920         4.8687 
 107   0.0000       0.194425         5.2906 
 108   0.0000       0.213531         5.8105 
 109   0.0000       0.219819         5.9816 
 110   0.0000       0.228318         6.2128 
 111   0.0000       0.237248         6.4558 
 112   0.0000       0.239197         6.5089 
 113   0.0000       0.244746         6.6599 
 114   0.0000       0.248364         6.7583 
 115   0.0000       0.257919         7.0183 
 116   0.0000       0.267888         7.2896 
 117   0.0000       0.269577         7.3356 
 118   0.0000       0.282276         7.6811 
 119   0.0000       0.293430         7.9846 
 120   0.0000       0.296558         8.0697 
 121   0.0000       0.310795         8.4572 
 122   0.0000       0.313421         8.5286 
 123   0.0000       0.318410         8.6644 
 124   0.0000       0.321409         8.7460 
 125   0.0000       0.330041         8.9809 
 126   0.0000       0.335304         9.1241 
 127   0.0000       0.342923         9.3314 
 128   0.0000       0.352371         9.5885 
 129   0.0000       0.359871         9.7926 
 130   0.0000       0.363126         9.8812 
 131   0.0000       0.373557        10.1650 
 132   0.0000       0.384087        10.4515 
 133   0.0000       0.387601        10.5472 
 134   0.0000       0.399946        10.8831 
 135   0.0000       0.407066        11.0768 
 136   0.0000       0.415044        11.2939 
 137   0.0000       0.424587        11.5536 
 138   0.0000       0.431116        11.7313 
 139   0.0000       0.436279        11.8717 
 140   0.0000       0.439206        11.9514 
 141   0.0000       0.442319        12.0361 
 142   0.0000       0.448895        12.2150 
 143   0.0000       0.454344        12.3633 
 144   0.0000       0.458285        12.4706 
 145   0.0000       0.461672        12.5627 
 146   0.0000       0.469293        12.7701 
 147   0.0000       0.470486        12.8026 
 148   0.0000       0.473349        12.8805 
 149   0.0000       0.477226        12.9860 
 150   0.0000       0.480850        13.0846 
 151   0.0000       0.493113        13.4183 
 152   0.0000       0.497820        13.5464 
 153   0.0000       0.502884        13.6842 
 154   0.0000       0.505715        13.7612 
 155   0.0000       0.514572        14.0022 
 156   0.0000       0.519534        14.1373 
 157   0.0000       0.529507        14.4086 
 158   0.0000       0.545183        14.8352 
 159   0.0000       0.546132        14.8610 
 160   0.0000       0.548023        14.9125 
 161   0.0000       0.559862        15.2346 
 162   0.0000       0.561264        15.2728 
 163   0.0000       0.579090        15.7578 
 164   0.0000       0.589295        16.0355 
 165   0.0000       0.593092        16.1389 
 166   0.0000       0.601346        16.3635 
 167   0.0000       0.612177        16.6582 
 168   0.0000       0.618362        16.8265 
 169   0.0000       0.619406        16.8549 
 170   0.0000       0.623673        16.9710 
 171   0.0000       0.628504        17.1025 
 172   0.0000       0.630966        17.1695 
 173   0.0000       0.636422        17.3179 
 174   0.0000       0.638129        17.3644 
 175   0.0000       0.643282        17.5046 
 176   0.0000       0.644601        17.5405 
 177   0.0000       0.645660        17.5693 
 178   0.0000       0.652939        17.7674 
 179   0.0000       0.654505        17.8100 
 180   0.0000       0.655058        17.8250 
 181   0.0000       0.664156        18.0726 
 182   0.0000       0.668581        18.1930 
 183   0.0000       0.674173        18.3452 
 184   0.0000       0.676728        18.4147 
 185   0.0000       0.685566        18.6552 
 186   0.0000       0.689119        18.7519 
 187   0.0000       0.701002        19.0752 
 188   0.0000       0.708398        19.2765 
 189   0.0000       0.710543        19.3349 
 190   0.0000       0.721609        19.6360 
 191   0.0000       0.731478        19.9045 
 192   0.0000       0.732484        19.9319 
 193   0.0000       0.737149        20.0588 
 194   0.0000       0.744315        20.2538 
 195   0.0000       0.754018        20.5179 
 196   0.0000       0.754606        20.5339 
 197   0.0000       0.759458        20.6659 
 198   0.0000       0.776205        21.1216 
 199   0.0000       0.780859        21.2482 
 200   0.0000       0.782763        21.3001 
 201   0.0000       0.791941        21.5498 
 202   0.0000       0.798224        21.7208 
 203   0.0000       0.811485        22.0816 
 204   0.0000       0.829658        22.5762 
 205   0.0000       0.840746        22.8779 
 206   0.0000       0.845785        23.0150 
 207   0.0000       0.856688        23.3117 
 208   0.0000       0.861024        23.4297 
 209   0.0000       0.872551        23.7433 
 210   0.0000       0.880322        23.9548 
 211   0.0000       0.893641        24.3172 
 212   0.0000       0.899831        24.4856 
 213   0.0000       0.922621        25.1058 
 214   0.0000       0.943782        25.6816 
 215   0.0000       0.973648        26.4943 
 216   0.0000       0.981136        26.6981 
 217   0.0000       0.998764        27.1778 
 218   0.0000       1.016243        27.6534 
 219   0.0000       1.023498        27.8508 
 220   0.0000       1.033608        28.1259 
 221   0.0000       1.053999        28.6808 
 222   0.0000       1.079581        29.3769 
 223   0.0000       1.085691        29.5432 
 224   0.0000       1.106019        30.0963 
 225   0.0000       1.110218        30.2106 
 226   0.0000       1.125560        30.6280 
 227   0.0000       1.132314        30.8118 
 228   0.0000       1.160387        31.5757 
 229   0.0000       1.173574        31.9346 
 230   0.0000       1.176782        32.0219 
 231   0.0000       1.191412        32.4200 
 232   0.0000       1.191842        32.4317 
 233   0.0000       1.212078        32.9823 
 234   0.0000       1.215365        33.0718 
 235   0.0000       1.219353        33.1803 
 236   0.0000       1.222636        33.2696 
 237   0.0000       1.227778        33.4095 
 238   0.0000       1.235418        33.6174 
 239   0.0000       1.242050        33.7979 
 240   0.0000       1.246816        33.9276 
 241   0.0000       1.254590        34.1391 
 242   0.0000       1.260755        34.3069 
 243   0.0000       1.270403        34.5694 
 244   0.0000       1.280000        34.8306 
 245   0.0000       1.288088        35.0507 
 246   0.0000       1.290448        35.1149 
 247   0.0000       1.295692        35.2576 
 248   0.0000       1.318712        35.8840 
 249   0.0000       1.332984        36.2723 
 250   0.0000       1.334293        36.3079 
 251   0.0000       1.343647        36.5625 
 252   0.0000       1.351268        36.7699 
 253   0.0000       1.359139        36.9840 
 254   0.0000       1.368083        37.2274 
 255   0.0000       1.383212        37.6391 
 256   0.0000       1.389917        37.8216 
 257   0.0000       1.424860        38.7724 
 258   0.0000       1.459217        39.7073 
 259   0.0000       1.467123        39.9224 
 260   0.0000       1.480488        40.2861 
 261   0.0000       1.495335        40.6901 
 262   0.0000       1.502515        40.8855 
 263   0.0000       1.507130        41.0111 
 264   0.0000       1.511257        41.1234 
 265   0.0000       1.543805        42.0091 
 266   0.0000       1.610554        43.8254 
 267   0.0000       1.618849        44.0511 
 268   0.0000       1.625484        44.2317 
 269   0.0000       1.625854        44.2417 
 270   0.0000       1.650054        44.9003 
 271   0.0000       1.653759        45.0011 
 272   0.0000       1.654249        45.0144 
 273   0.0000       1.665784        45.3283 
 274   0.0000       1.674797        45.5735 
 275   0.0000       1.681220        45.7483 
 276   0.0000       1.686028        45.8792 
 277   0.0000       1.693584        46.0848 
 278   0.0000       1.695180        46.1282 
 279   0.0000       1.702710        46.3331 
 280   0.0000       1.716529        46.7091 
 281   0.0000       1.720081        46.8058 
 282   0.0000       1.732870        47.1538 
 283   0.0000       1.734680        47.2030 
 284   0.0000       1.737302        47.2744 
 285   0.0000       1.741243        47.3816 
 286   0.0000       1.746883        47.5351 
 287   0.0000       1.751468        47.6599 
 288   0.0000       1.759222        47.8709 
 289   0.0000       1.761636        47.9365 
 290   0.0000       1.766131        48.0589 
 291   0.0000       1.771140        48.1952 
 292   0.0000       1.775427        48.3118 
 293   0.0000       1.792765        48.7836 
 294   0.0000       1.800983        49.0072 
 295   0.0000       1.802180        49.0398 
 296   0.0000       1.811185        49.2848 
 297   0.0000       1.823574        49.6220 
 298   0.0000       1.840270        50.0763 
 299   0.0000       1.848287        50.2944 
 300   0.0000       1.861312        50.6489 
 301   0.0000       1.867502        50.8173 
 302   0.0000       1.888358        51.3848 
 303   0.0000       1.895699        51.5846 
 304   0.0000       1.900821        51.7240 
 305   0.0000       1.907033        51.8930 
 306   0.0000       1.913098        52.0580 
 307   0.0000       1.926442        52.4212 
 308   0.0000       1.934485        52.6400 
 309   0.0000       1.947419        52.9920 
 310   0.0000       1.958324        53.2887 
 311   0.0000       1.964506        53.4569 
 312   0.0000       1.976940        53.7953 
 313   0.0000       1.991338        54.1871 
 314   0.0000       1.996712        54.3333 
 315   0.0000       2.004784        54.5529 
 316   0.0000       2.025125        55.1064 
 317   0.0000       2.039250        55.4908 
 318   0.0000       2.047221        55.7077 
 319   0.0000       2.052012        55.8381 
 320   0.0000       2.059047        56.0295 
 321   0.0000       2.065479        56.2045 
 322   0.0000       2.078800        56.5670 
 323   0.0000       2.092853        56.9494 
 324   0.0000       2.094396        56.9914 
 325   0.0000       2.098313        57.0980 
 326   0.0000       2.128184        57.9108 
 327   0.0000       2.142025        58.2875 
 328   0.0000       2.145133        58.3720 
 329   0.0000       2.152929        58.5842 
 330   0.0000       2.167725        58.9868 
 331   0.0000       2.174675        59.1759 
 332   0.0000       2.185875        59.4807 
 333   0.0000       2.189743        59.5859 
 334   0.0000       2.214337        60.2552 
 335   0.0000       2.215620        60.2901 
 336   0.0000       2.220717        60.4288 
 337   0.0000       2.243428        61.0468 
 338   0.0000       2.250197        61.2310 
 339   0.0000       2.254592        61.3506 
 340   0.0000       2.255284        61.3694 
 341   0.0000       2.259722        61.4902 
 342   0.0000       2.265201        61.6393 
 343   0.0000       2.284547        62.1657 
 344   0.0000       2.286871        62.2289 
 345   0.0000       2.293581        62.4115 
 346   0.0000       2.299257        62.5660 
 347   0.0000       2.307812        62.7988 
 348   0.0000       2.309985        62.8579 
 349   0.0000       2.322213        63.1906 
 350   0.0000       2.353049        64.0297 
 351   0.0000       2.367485        64.4225 
 352   0.0000       2.369919        64.4888 
 353   0.0000       2.392285        65.0974 
 354   0.0000       2.406994        65.4976 
 355   0.0000       2.422671        65.9242 
 356   0.0000       2.436398        66.2978 
 357   0.0000       2.461744        66.9875 
 358   0.0000       2.470956        67.2381 
 359   0.0000       2.490562        67.7716 
 360   0.0000       2.513598        68.3985 
 361   0.0000       2.521048        68.6012 
 362   0.0000       2.528447        68.8025 
 363   0.0000       2.556673        69.5706 
 364   0.0000       2.570205        69.9388 
 365   0.0000       2.582003        70.2599 
 366   0.0000       2.590111        70.4805 
 367   0.0000       2.603295        70.8392 
 368   0.0000       2.616885        71.2091 
 369   0.0000       2.632338        71.6296 
 370   0.0000       2.646927        72.0265 
 371   0.0000       2.660178        72.3871 
 372   0.0000       2.677123        72.8482 
 373   0.0000       2.680775        72.9476 
 374   0.0000       2.689522        73.1856 
 375   0.0000       2.698780        73.4375 
 376   0.0000       2.726831        74.2008 
 377   0.0000       2.758963        75.0752 
 378   0.0000       2.763663        75.2031 
 379   0.0000       2.770967        75.4018 
 380   0.0000       2.771536        75.4173 
 381   0.0000       2.774293        75.4923 
 382   0.0000       2.811773        76.5122 
 383   0.0000       2.835412        77.1555 
 384   0.0000       2.850117        77.5556 
 385   0.0000       2.864091        77.9359 
 386   0.0000       2.872575        78.1667 
 387   0.0000       2.894726        78.7695 
 388   0.0000       2.903501        79.0083 
 389   0.0000       2.910045        79.1863 
 390   0.0000       2.945412        80.1487 
 391   0.0000       2.965997        80.7089 
 392   0.0000       2.967469        80.7489 
 393   0.0000       2.996493        81.5387 
 394   0.0000       3.001211        81.6671 
 395   0.0000       3.012970        81.9871 
 396   0.0000       3.036381        82.6241 
 397   0.0000       3.055132        83.1344 
 398   0.0000       3.100773        84.3763 
 399   0.0000       3.108157        84.5772 
 400   0.0000       3.151648        85.7607 
 401   0.0000       3.195893        86.9647 
 402   0.0000       3.262703        88.7827 
 403   0.0000       3.277742        89.1919 
 404   0.0000       3.367592        91.6368 
 405   0.0000       3.406738        92.7021 
 406   0.0000       3.455853        94.0385 
 407   0.0000       3.529530        96.0434 
 408   0.0000       3.565641        97.0260 
 409   0.0000       3.596857        97.8754 
 410   0.0000       3.646671        99.2310 

                    ********************************
                    * MULLIKEN POPULATION ANALYSIS *
                    ********************************

-----------------------
MULLIKEN ATOMIC CHARGES
-----------------------
   0 C :    0.060345
   1 C :   -0.022485
   2 C :   -0.030304
   3 C :    0.071212
   4 C :   -0.010129
   5 C :   -0.031155
   6 C :    0.057422
[...]
    109      -0.000013  -0.000099  -0.000091
    110      -0.000004  -0.000129  -0.000028
    111      -0.000005  -0.000053  -0.000030
    112       0.000001  -0.000062   0.000002
    113       0.000030   0.000408   0.000143
    114      -0.000004  -0.000033  -0.000102
    115      -0.000007  -0.000291  -0.000091
    116       0.000000   0.000056  -0.000038


-----------
IR SPECTRUM
-----------

 Mode   freq       eps      Int      T**2         TX        TY        TZ
       cm**-1   L/(mol*cm) km/mol    a.u.
----------------------------------------------------------------------------
  7:     20.85   0.000057    0.29  0.000848  ( 0.002686 -0.028795  0.003448)
  8:     36.73   0.000946    4.78  0.008036  (-0.007481 -0.042753 -0.078438)
  9:     57.14   0.000115    0.58  0.000627  ( 0.005664 -0.013147 -0.020544)
 10:     65.56   0.000325    1.64  0.001545  ( 0.019734  0.033979  0.001118)
 11:     89.78   0.000407    2.06  0.001415  ( 0.026718  0.026285  0.003137)
 12:     98.51   0.000187    0.94  0.000592  ( 0.000090  0.014729 -0.019375)
 13:    115.24   0.000161    0.82  0.000437  (-0.009593  0.018086  0.004205)
 14:    142.61   0.000042    0.21  0.000091  ( 0.002202 -0.009274  0.000346)
 15:    156.11   0.000425    2.15  0.000849  ( 0.003997 -0.013771 -0.025368)
 16:    200.51   0.000087    0.44  0.000135  ( 0.003388 -0.010100 -0.004658)
 17:    214.68   0.001006    5.08  0.001462  (-0.005016 -0.027884  0.025682)
 18:    223.62   0.001279    6.47  0.001785  ( 0.005042  0.020377  0.036670)
 19:    241.90   0.000152    0.77  0.000197  (-0.011714 -0.007630  0.001114)
 20:    264.39   0.000041    0.21  0.000048  (-0.006122  0.001446 -0.002986)
 21:    265.87   0.000050    0.25  0.000059  ( 0.002411 -0.006841 -0.002430)
 22:    299.12   0.000136    0.69  0.000142  (-0.008962 -0.004625 -0.006339)
 23:    322.60   0.001460    7.38  0.001412  (-0.028295  0.024340  0.004377)
 24:    367.58   0.000203    1.03  0.000173  ( 0.009354 -0.008239 -0.004158)
 25:    401.33   0.003930   19.86  0.003056  (-0.034189  0.042683 -0.008050)
 26:    420.79   0.000468    2.37  0.000347  ( 0.009653 -0.015932  0.000365)
 27:    451.01   0.000402    2.03  0.000278  (-0.008324  0.012628  0.007042)
 28:    478.33   0.000608    3.07  0.000397  (-0.013410  0.014394 -0.003148)
 29:    493.82   0.000745    3.77  0.000471  ( 0.004504 -0.003464 -0.020945)
 30:    505.57   0.000096    0.49  0.000060  ( 0.003075 -0.006906 -0.001545)
 31:    522.72   0.001976    9.99  0.001180  (-0.008692  0.033177 -0.001887)
 32:    528.02   0.000285    1.44  0.000168  (-0.003557  0.012207  0.002556)
 33:    543.80   0.000453    2.29  0.000260  ( 0.014907 -0.005895  0.001708)
 34:    560.84   0.000023    0.12  0.000013  ( 0.001918 -0.002950  0.000678)
 35:    565.86   0.000008    0.04  0.000005  (-0.000305  0.001981  0.000705)
 36:    581.73   0.000547    2.77  0.000294  (-0.006387  0.007382  0.014086)
 37:    614.94   0.001962    9.91  0.000996  ( 0.014914 -0.027790 -0.000976)
 38:    630.75   0.000084    0.43  0.000042  (-0.005826  0.002674  0.000772)
 39:    678.04   0.000453    2.29  0.000208  ( 0.007113 -0.011307 -0.005469)
 40:    702.54   0.000171    0.86  0.000076  ( 0.005808 -0.006484  0.000135)
 41:    718.99   0.001006    5.08  0.000437  (-0.002091  0.002530  0.020635)
 42:    754.52   0.002400   12.13  0.000993  ( 0.003143  0.000732 -0.031341)
 43:    762.06   0.000511    2.58  0.000209  ( 0.005434 -0.003204  0.013025)
 44:    781.29   0.000264    1.34  0.000106  ( 0.003428 -0.009579  0.001445)
 45:    815.36   0.005424   27.41  0.002076  (-0.020024  0.040924 -0.000200)
 46:    817.08   0.000272    1.38  0.000104  (-0.001188  0.004717  0.008964)
 47:    831.82   0.001769    8.94  0.000664  ( 0.000570 -0.007754  0.024558)
 48:    851.93   0.000720    3.64  0.000264  ( 0.003209  0.005125  0.015074)
 49:    856.83   0.000220    1.11  0.000080  ( 0.004725  0.002155 -0.007284)
 50:    876.30   0.005477   27.68  0.001951  (-0.004436  0.001883 -0.043902)
 51:    884.84   0.000646    3.26  0.000228  ( 0.010549 -0.006826 -0.008360)
 52:    890.20   0.005439   27.48  0.001907  (-0.004745  0.003512  0.043263)
 53:    942.02   0.000444    2.25  0.000147  (-0.001386  0.001850 -0.011910)
 54:    947.40   0.009229   46.64  0.003040  ( 0.023427 -0.014999  0.047604)
 55:    985.25   0.003266   16.50  0.001034  (-0.000864  0.001885  0.032096)
 56:    988.15   0.004098   20.71  0.001294  (-0.017405  0.031442  0.001648)
 57:    993.86   0.000466    2.35  0.000146  (-0.000574  0.011909 -0.002022)
 58:    999.13   0.001357    6.86  0.000424  (-0.012179  0.016599  0.000326)
 59:   1001.95   0.001445    7.30  0.000450  ( 0.002664 -0.004563  0.020546)
 60:   1012.69   0.000057    0.29  0.000017  ( 0.000162  0.003490  0.002286)
 61:   1016.58   0.000019    0.10  0.000006  (-0.001917  0.001349  0.000621)
 62:   1039.79   0.001130    5.71  0.000339  ( 0.012953  0.010659 -0.007599)
 63:   1047.06   0.004912   24.82  0.001464  (-0.011511 -0.030814  0.019543)
 64:   1120.51   0.003891   19.66  0.001084  ( 0.006809 -0.031311  0.007545)
 65:   1131.40   0.000088    0.44  0.000024  (-0.002680  0.004083 -0.000581)
 66:   1169.62   0.002809   14.20  0.000750  (-0.008742  0.025923 -0.001037)
 67:   1171.06   0.036242  183.15  0.009658  (-0.039687  0.086993 -0.022694)
 68:   1181.62   0.003715   18.77  0.000981  ( 0.015588 -0.026123  0.007465)
 69:   1188.44   0.001818    9.19  0.000477  (-0.013151  0.017060 -0.003648)
 70:   1200.84   0.000952    4.81  0.000247  ( 0.005902  0.014535  0.001126)
 71:   1210.83   0.004047   20.45  0.001043  ( 0.030795 -0.008698  0.004354)
 72:   1241.07   0.019374   97.91  0.004872  (-0.035285  0.058929 -0.012404)
 73:   1257.91   0.099268  501.66  0.024626  ( 0.070517 -0.138597  0.021089)
 74:   1265.10   0.008987   45.41  0.002217  (-0.023084  0.040993 -0.001853)
 75:   1271.96   0.001487    7.51  0.000365  (-0.009381  0.015264 -0.006616)
 76:   1280.61   0.002265   11.45  0.000552  (-0.020328  0.011774  0.000423)
 77:   1293.36   0.089512  452.36  0.021598  ( 0.079240 -0.121051  0.025792)
 78:   1309.37   0.011812   59.69  0.002815  ( 0.028172 -0.043442  0.011589)
 79:   1331.25   0.005004   25.29  0.001173  ( 0.016027 -0.030015  0.003912)
 80:   1340.48   0.000602    3.04  0.000140  ( 0.000279 -0.011764  0.001246)
 81:   1371.12   0.001128    5.70  0.000257  ( 0.014131  0.004965 -0.005692)
 82:   1372.25   0.000330    1.67  0.000075  (-0.005799 -0.005593  0.003170)
 83:   1405.77   0.001312    6.63  0.000291  ( 0.010575 -0.012223  0.005479)
 84:   1406.80   0.001720    8.69  0.000381  ( 0.005245 -0.018249  0.004569)
 85:   1424.36   0.004733   23.92  0.001037  (-0.008887  0.030768 -0.003371)
 86:   1442.01   0.000622    3.14  0.000135  ( 0.006859 -0.009333  0.000621)
 87:   1464.87   0.000900    4.55  0.000192  ( 0.001211 -0.008816 -0.010604)
 88:   1466.57   0.001268    6.41  0.000270  ( 0.001085  0.015416  0.005573)
 89:   1470.24   0.000459    2.32  0.000097  (-0.004016  0.008397  0.003285)
 90:   1475.02   0.020140  101.78  0.004261  ( 0.039352 -0.051084  0.010142)
 91:   1504.30   0.000499    2.52  0.000104  (-0.009090 -0.004525 -0.000712)
 92:   1536.19   0.000450    2.27  0.000091  ( 0.009404  0.001682  0.000420)
 93:   1546.42   0.002391   12.08  0.000482  ( 0.007716 -0.020563 -0.000180)
 94:   1574.87   0.004280   21.63  0.000848  ( 0.018537 -0.022223  0.003267)
 95:   1621.94   0.001765    8.92  0.000340  ( 0.004476 -0.017771  0.001932)
 96:   1637.61   0.058928  297.80  0.011229  (-0.056699  0.089068 -0.009024)
 97:   1656.51   0.008741   44.17  0.001647  ( 0.003298 -0.040444  0.000319)
 98:   1663.63   0.021281  107.55  0.003992  ( 0.035081 -0.052323  0.004853)
 99:   1675.17   0.001122    5.67  0.000209  (-0.000010  0.014243 -0.002489)
100:   1717.30   0.099899  504.85  0.018153  ( 0.064091 -0.116453  0.022011)
101:   2336.71   0.028949  146.30  0.003866  (-0.038387  0.048779 -0.003617)
102:   2996.12   0.033310  168.33  0.003469  ( 0.013620 -0.054016  0.019136)
103:   3069.04   0.007274   36.76  0.000740  ( 0.010094  0.009567  0.023372)
104:   3134.77   0.001991   10.06  0.000198  (-0.013439  0.002346  0.003474)
105:   3145.78   0.003762   19.01  0.000373  (-0.016920  0.008810  0.003046)
106:   3171.15   0.000225    1.14  0.000022  (-0.003826  0.002724 -0.000324)
107:   3173.97   0.000154    0.78  0.000015  (-0.002100 -0.003269  0.000040)
108:   3174.48   0.002518   12.72  0.000248  (-0.015691  0.000537 -0.001015)
109:   3175.88   0.003575   18.07  0.000351  (-0.017350  0.007012 -0.001058)
110:   3179.16   0.000702    3.55  0.000069  ( 0.006420  0.005260  0.000105)
111:   3186.76   0.001687    8.52  0.000165  (-0.007719  0.010269 -0.000376)
112:   3192.28   0.003972   20.07  0.000388  ( 0.005112  0.019027  0.000259)
113:   3199.69   0.002397   12.12  0.000234  ( 0.005586  0.014232 -0.000265)
114:   3200.47   0.000234    1.18  0.000023  (-0.004381  0.001881 -0.000225)
115:   3216.05   0.002215   11.19  0.000215  ( 0.014283 -0.003243  0.000663)
116:   3221.90   0.002732   13.81  0.000265  ( 0.015189 -0.005752  0.000910)

* The epsilon (eps) is given for a Dirac delta lineshape.
** The dipole moment derivative (T) already includes vibrational overlap.

The first frequency considered to be a vibration is 7
The total number of vibrations considered is 110


--------------------------
THERMOCHEMISTRY AT 298.15K
--------------------------

Temperature         ... 298.15 K
Pressure            ... 1.00 atm
Total Mass          ... 309.37 AMU

Throughout the following assumptions are being made:
  (1) The electronic state is orbitally nondegenerate
  (2) There are no thermally accessible electronically excited states
  (3) Hindered rotations indicated by low frequency modes are not
      treated as such but are treated as vibrations and this may
      cause some error
  (4) All equations used are the standard statistical mechanics
      equations for an ideal gas
  (5) All vibrations are strictly harmonic

freq.      20.85  E(vib)   ...       0.56 
freq.      36.73  E(vib)   ...       0.54 
freq.      57.14  E(vib)   ...       0.51 
freq.      65.56  E(vib)   ...       0.50 
freq.      89.78  E(vib)   ...       0.47 
freq.      98.51  E(vib)   ...       0.46 
freq.     115.24  E(vib)   ...       0.44 
freq.     142.61  E(vib)   ...       0.41 
freq.     156.11  E(vib)   ...       0.40 
freq.     200.51  E(vib)   ...       0.35 
freq.     214.68  E(vib)   ...       0.34 
freq.     223.62  E(vib)   ...       0.33 
freq.     241.90  E(vib)   ...       0.31 
freq.     264.39  E(vib)   ...       0.29 
freq.     265.87  E(vib)   ...       0.29 
freq.     299.12  E(vib)   ...       0.26 
freq.     322.60  E(vib)   ...       0.25 
freq.     367.58  E(vib)   ...       0.21 
freq.     401.33  E(vib)   ...       0.19 
freq.     420.79  E(vib)   ...       0.18 
freq.     451.01  E(vib)   ...       0.17 
freq.     478.33  E(vib)   ...       0.15 
freq.     493.82  E(vib)   ...       0.14 
freq.     505.57  E(vib)   ...       0.14 
freq.     522.72  E(vib)   ...       0.13 
freq.     528.02  E(vib)   ...       0.13 
freq.     543.80  E(vib)   ...       0.12 
freq.     560.84  E(vib)   ...       0.11 
freq.     565.86  E(vib)   ...       0.11 
freq.     581.73  E(vib)   ...       0.11 
freq.     614.94  E(vib)   ...       0.10 
freq.     630.75  E(vib)   ...       0.09 
freq.     678.04  E(vib)   ...       0.08 
freq.     702.54  E(vib)   ...       0.07 
freq.     718.99  E(vib)   ...       0.07 
freq.     754.52  E(vib)   ...       0.06 
freq.     762.06  E(vib)   ...       0.06 
freq.     781.29  E(vib)   ...       0.05 
freq.     815.36  E(vib)   ...       0.05 
freq.     817.08  E(vib)   ...       0.05 
freq.     831.82  E(vib)   ...       0.04 
freq.     851.93  E(vib)   ...       0.04 
freq.     856.83  E(vib)   ...       0.04 
freq.     876.30  E(vib)   ...       0.04 
freq.     884.84  E(vib)   ...       0.04 
freq.     890.20  E(vib)   ...       0.04 
freq.     942.02  E(vib)   ...       0.03 
freq.     947.40  E(vib)   ...       0.03 
freq.     985.25  E(vib)   ...       0.02 
freq.     988.15  E(vib)   ...       0.02 
freq.     993.86  E(vib)   ...       0.02 
freq.     999.13  E(vib)   ...       0.02 
freq.    1001.95  E(vib)   ...       0.02 
freq.    1012.69  E(vib)   ...       0.02 
freq.    1016.58  E(vib)   ...       0.02 
freq.    1039.79  E(vib)   ...       0.02 
freq.    1047.06  E(vib)   ...       0.02 
freq.    1120.51  E(vib)   ...       0.01 
freq.    1131.40  E(vib)   ...       0.01 
freq.    1169.62  E(vib)   ...       0.01 
freq.    1171.06  E(vib)   ...       0.01 
freq.    1181.62  E(vib)   ...       0.01 
freq.    1188.44  E(vib)   ...       0.01 
freq.    1200.84  E(vib)   ...       0.01 
freq.    1210.83  E(vib)   ...       0.01 
freq.    1241.07  E(vib)   ...       0.01 
freq.    1257.91  E(vib)   ...       0.01 
freq.    1265.10  E(vib)   ...       0.01 
freq.    1271.96  E(vib)   ...       0.01 
freq.    1280.61  E(vib)   ...       0.01 
freq.    1293.36  E(vib)   ...       0.01 
freq.    1309.37  E(vib)   ...       0.01 
freq.    1331.25  E(vib)   ...       0.01 
freq.    1340.48  E(vib)   ...       0.01 
freq.    1371.12  E(vib)   ...       0.01 
freq.    1372.25  E(vib)   ...       0.01 
freq.    1405.77  E(vib)   ...       0.00 
freq.    1406.80  E(vib)   ...       0.00 
freq.    1424.36  E(vib)   ...       0.00 
freq.    1442.01  E(vib)   ...       0.00 
freq.    1464.87  E(vib)   ...       0.00 
freq.    1466.57  E(vib)   ...       0.00 
freq.    1470.24  E(vib)   ...       0.00 
freq.    1475.02  E(vib)   ...       0.00 
freq.    1504.30  E(vib)   ...       0.00 
freq.    1536.19  E(vib)   ...       0.00 
freq.    1546.42  E(vib)   ...       0.00 
freq.    1574.87  E(vib)   ...       0.00 
freq.    1621.94  E(vib)   ...       0.00 
freq.    1637.61  E(vib)   ...       0.00 
freq.    1656.51  E(vib)   ...       0.00 
freq.    1663.63  E(vib)   ...       0.00 
freq.    1675.17  E(vib)   ...       0.00 
freq.    1717.30  E(vib)   ...       0.00 
freq.    2336.71  E(vib)   ...       0.00 
freq.    2996.12  E(vib)   ...       0.00 
freq.    3069.04  E(vib)   ...       0.00 
freq.    3134.77  E(vib)   ...       0.00 
freq.    3145.78  E(vib)   ...       0.00 
freq.    3171.15  E(vib)   ...       0.00 
freq.    3173.97  E(vib)   ...       0.00 
freq.    3174.48  E(vib)   ...       0.00 
freq.    3175.88  E(vib)   ...       0.00 
freq.    3179.16  E(vib)   ...       0.00 
freq.    3186.76  E(vib)   ...       0.00 
freq.    3192.28  E(vib)   ...       0.00 
freq.    3199.69  E(vib)   ...       0.00 
freq.    3200.47  E(vib)   ...       0.00 
freq.    3216.05  E(vib)   ...       0.00 
freq.    3221.90  E(vib)   ...       0.00 

------------
INNER ENERGY
------------

The inner energy is: U= E(el) + E(ZPE) + E(vib) + E(rot) + E(trans)
    E(el)   - is the total energy from the electronic structure calculation
              = E(kin-el) + E(nuc-el) + E(el-el) + E(nuc-nuc)
    E(ZPE)  - the the zero temperature vibrational energy from the frequency calculation
    E(vib)  - the the finite temperature correction to E(ZPE) due to population
              of excited vibrational states
    E(rot)  - is the rotational thermal energy
    E(trans)- is the translational thermal energy

Summary of contributions to the inner energy U:
Electronic energy                ...   -976.03472631 Eh
Zero point energy                ...      0.30493393 Eh     191.35 kcal/mol
Thermal vibrational correction   ...      0.01595427 Eh      10.01 kcal/mol
Thermal rotational correction    ...      0.00141627 Eh       0.89 kcal/mol
Thermal translational correction ...      0.00141627 Eh       0.89 kcal/mol
-----------------------------------------------------------------------
Total thermal energy                   -975.71100557 Eh


Summary of corrections to the electronic energy:
(perhaps to be used in another calculation)
Total thermal correction                  0.01878681 Eh      11.79 kcal/mol
Non-thermal (ZPE) correction              0.30493393 Eh     191.35 kcal/mol
-----------------------------------------------------------------------
Total correction                          0.32372074 Eh     203.14 kcal/mol


--------
ENTHALPY
--------

The enthalpy is H = U + kB*T
                kB is Boltzmann's constant
Total free energy                 ...   -975.71100557 Eh 
Thermal Enthalpy correction       ...      0.00094421 Eh       0.59 kcal/mol
-----------------------------------------------------------------------
Total Enthalpy                    ...   -975.71006137 Eh


Note: Only C1 symmetry has been detected, increase convergence thresholds 
      if your molecule has a higher symmetry. Symmetry factor of 1.0 is   
      used for the rotational entropy correction. 
 

Note: Rotational entropy computed according to Herzberg 
Infrared and Raman Spectra, Chapter V,1, Van Nostrand Reinhold, 1945 
Point Group:  C1, Symmetry Number:   1  
Rotational constants in cm-1:     0.025712     0.003245     0.002894 

Vibrational entropy computed according to the QRRHO of S. Grimme
Chem.Eur.J. 2012 18 9955


-------
ENTROPY
-------

The entropy contributions are T*S = T*(S(el)+S(vib)+S(rot)+S(trans))
     S(el)   - electronic entropy
     S(vib)  - vibrational entropy
     S(rot)  - rotational entropy
     S(trans)- translational entropy
The entropies will be listed as multiplied by the temperature to get
units of energy

Electronic entropy                ...      0.00000000 Eh      0.00 kcal/mol
Vibrational entropy               ...      0.02783873 Eh     17.47 kcal/mol
Rotational entropy                ...      0.01670386 Eh     10.48 kcal/mol
Translational entropy             ...      0.02047072 Eh     12.85 kcal/mol
-----------------------------------------------------------------------
Final entropy term                ...      0.06501332 Eh     40.80 kcal/mol

In case the symmetry of your molecule has not been determined correctly
or in case you have a reason to use a different symmetry number we print 
out the resulting rotational entropy values for sn=1,12 :
 --------------------------------------------------------
|  sn= 1 | S(rot)=       0.01670386 Eh     10.48 kcal/mol|
|  sn= 2 | S(rot)=       0.01604941 Eh     10.07 kcal/mol|
|  sn= 3 | S(rot)=       0.01566657 Eh      9.83 kcal/mol|
|  sn= 4 | S(rot)=       0.01539495 Eh      9.66 kcal/mol|
|  sn= 5 | S(rot)=       0.01518426 Eh      9.53 kcal/mol|
|  sn= 6 | S(rot)=       0.01501212 Eh      9.42 kcal/mol|
|  sn= 7 | S(rot)=       0.01486657 Eh      9.33 kcal/mol|
|  sn= 8 | S(rot)=       0.01474049 Eh      9.25 kcal/mol|
|  sn= 9 | S(rot)=       0.01462929 Eh      9.18 kcal/mol|
|  sn=10 | S(rot)=       0.01452981 Eh      9.12 kcal/mol|
|  sn=11 | S(rot)=       0.01443982 Eh      9.06 kcal/mol|
|  sn=12 | S(rot)=       0.01435766 Eh      9.01 kcal/mol|
 --------------------------------------------------------


-------------------
GIBBS FREE ENERGY
-------------------

The Gibbs free energy is G = H - T*S

Total enthalpy                    ...   -975.71006137 Eh 
Total entropy correction          ...     -0.06501332 Eh    -40.80 kcal/mol
-----------------------------------------------------------------------
Final Gibbs free energy         ...   -975.77507469 Eh

For completeness - the Gibbs free energy minus the electronic energy
G-E(el)                           ...      0.25965163 Eh    162.93 kcal/mol


Timings for individual modules:

Sum of individual times         ...     2067.022 sec (=  34.450 min)
GTO integral calculation        ...       14.311 sec (=   0.239 min)   0.7 %
SCF iterations                  ...      373.401 sec (=   6.223 min)  18.1 %
SCF Gradient evaluation         ...       36.513 sec (=   0.609 min)   1.8 %
Geometry relaxation             ...        3.882 sec (=   0.065 min)   0.2 %
Analytical frequency calculation...     1638.915 sec (=  27.315 min)  79.3 %
                             ****ORCA TERMINATED NORMALLY****
TOTAL RUN TIME: 0 days 0 hours 34 minutes 33 seconds 671 msec
