 Entering Gaussian System, Link 0=g16
 Initial command:
 /opt/bwhpc/common/chem/gaussian/g16.C.01/x86_64-Intel-avx2-source/g16/l1.exe "/scratch/ka_pr7831.18346898/Gau-3671826.inp" -scrdir="/scratch/ka_pr7831.18346898/"
 Entering Link 1 = /opt/bwhpc/common/chem/gaussian/g16.C.01/x86_64-Intel-avx2-source/g16/l1.exe PID=   3671828.
  
 Copyright (c) 1988-2019, Gaussian, Inc.  All Rights Reserved.
  
 This is part of the Gaussian(R) 16 program.  It is based on
 the Gaussian(R) 09 system (copyright 2009, Gaussian, Inc.),
 the Gaussian(R) 03 system (copyright 2003, Gaussian, Inc.),
 the Gaussian(R) 98 system (copyright 1998, Gaussian, Inc.),
 the Gaussian(R) 94 system (copyright 1995, Gaussian, Inc.),
 the Gaussian 92(TM) system (copyright 1992, Gaussian, Inc.),
 the Gaussian 90(TM) system (copyright 1990, Gaussian, Inc.),
 the Gaussian 88(TM) system (copyright 1988, Gaussian, Inc.),
 the Gaussian 86(TM) system (copyright 1986, Carnegie Mellon
 University), and the Gaussian 82(TM) system (copyright 1983,
 Carnegie Mellon University). Gaussian is a federally registered
 trademark of Gaussian, Inc.
  
 This software contains proprietary and confidential information,
 including trade secrets, belonging to Gaussian, Inc.
  
 This software is provided under written license and may be
 used, copied, transmitted, or stored only in accord with that
 written license.
  
 The following legend is applicable only to US Government
 contracts under FAR:
  
                    RESTRICTED RIGHTS LEGEND
  
 Use, reproduction and disclosure by the US Government is
 subject to restrictions as set forth in subparagraphs (a)
 and (c) of the Commercial Computer Software - Restricted
 Rights clause in FAR 52.227-19.
  
 Gaussian, Inc.
 340 Quinnipiac St., Bldg. 40, Wallingford CT 06492
  
  
 ---------------------------------------------------------------
 Warning -- This program may not be used in any manner that
 competes with the business of Gaussian, Inc. or will provide
 assistance to any competitor of Gaussian, Inc.  The licensee
 of this program is prohibited from giving any competitor of
 Gaussian, Inc. access to this program.  By using this program,
 the user acknowledges that Gaussian, Inc. is engaged in the
 business of creating and licensing software in the field of
 computational chemistry and represents and warrants to the
 licensee that it is not a competitor of Gaussian, Inc. and that
 it will not use this program in any manner prohibited above.
 ---------------------------------------------------------------
  

 Cite this work as:
 Gaussian 16, Revision C.01,
 M. J. Frisch, G. W. Trucks, H. B. Schlegel, G. E. Scuseria, 
 M. A. Robb, J. R. Cheeseman, G. Scalmani, V. Barone, 
 G. A. Petersson, H. Nakatsuji, X. Li, M. Caricato, A. V. Marenich, 
 J. Bloino, B. G. Janesko, R. Gomperts, B. Mennucci, H. P. Hratchian, 
 J. V. Ortiz, A. F. Izmaylov, J. L. Sonnenberg, D. Williams-Young, 
 F. Ding, F. Lipparini, F. Egidi, J. Goings, B. Peng, A. Petrone, 
 T. Henderson, D. Ranasinghe, V. G. Zakrzewski, J. Gao, N. Rega, 
 G. Zheng, W. Liang, M. Hada, M. Ehara, K. Toyota, R. Fukuda, 
 J. Hasegawa, M. Ishida, T. Nakajima, Y. Honda, O. Kitao, H. Nakai, 
 T. Vreven, K. Throssell, J. A. Montgomery, Jr., J. E. Peralta, 
 F. Ogliaro, M. J. Bearpark, J. J. Heyd, E. N. Brothers, K. N. Kudin, 
 V. N. Staroverov, T. A. Keith, R. Kobayashi, J. Normand, 
 K. Raghavachari, A. P. Rendell, J. C. Burant, S. S. Iyengar, 
 J. Tomasi, M. Cossi, J. M. Millam, M. Klene, C. Adamo, R. Cammi, 
 J. W. Ochterski, R. L. Martin, K. Morokuma, O. Farkas, 
 J. B. Foresman, and D. J. Fox, Gaussian, Inc., Wallingford CT, 2019.
 
 ******************************************
 Gaussian 16:  ES64L-G16RevC.01  3-Jul-2019
                11-Aug-2025 
 ******************************************
 %chk=beta.chk
 %mem=10GB
 %nprocs=8
 Will use up to    8 processors via shared memory.
 --------------------------
 #P mp2/cc-pvdz polar=Cubic
 --------------------------
 1/30=1,38=101,172=1/1,6;
 2/12=2,17=6,18=5,40=1/2;
 3/5=16,11=9,25=1,30=1,71=2,140=1/1,2,3;
 4/69=2/1;
 5/5=2,38=5,98=1/2;
 8/6=4,8=1,10=1,19=10,30=-1/1;
 9/15=5,16=-3/6;
 10/6=2,13=10,21=1,60=-2/2;
 8/6=4,8=1,10=1,19=10,30=-1/11,4;
 10/5=1,13=10,20=4,60=-2/2;
 11/12=2,14=10,16=1,17=2,28=-2,32=3,42=3/12;
 6/7=2,8=2,9=2,10=2,22=-1/1;
 1/38=100/6(1);
 99/9=1/99;
 3/5=16,11=9,14=-3,25=1,30=1,71=2,140=1/1,2,3;
 4/5=5,16=3,69=2/1;
 5/5=2,38=5,98=1/2;
 8/6=4,8=1,10=1,19=10,30=-1/1;
 9/15=5,16=-3/6;
 10/6=2,13=10,21=1,60=-2/2;
 8/6=4,8=1,10=1,19=10,30=-1/11,4;
 10/5=1,13=10,20=4,60=-2/2;
 11/12=2,14=10,16=1,17=2,28=-2,32=3,42=3/12;
 6/7=2,8=2,9=2,10=2,22=-1/1;
 1/38=100/6(-10);
 99/9=1/99;
 Leave Link    1 at Mon Aug 11 10:15:00 2025, MaxMem=  1342177280 cpu:               0.2 elap:               0.0
 (Enter /opt/bwhpc/common/chem/gaussian/g16.C.01/x86_64-Intel-avx2-source/g16/l101.exe)
 --
 p1
 --
 Symbolic Z-matrix:
 Charge =  0 Multiplicity = 1
 C                    -1.78119   3.70635  -0.12212 
 C                    -0.52158   4.34491  -0.18699 
 C                     0.66215   3.63214  -0.16634 
 C                     0.6547    2.22324  -0.07569 
 C                     1.86617   1.46307  -0.06548 
 C                     1.84975   0.0989    0.0255 
 C                     0.62449  -0.64152   0.12484 
 C                     0.6001   -2.07139   0.23452 
 C                    -0.66359  -2.70356   0.29938 
 C                    -1.8512   -1.99174   0.2487 
 C                    -1.85503  -0.58665   0.15245 
 C                    -3.0657    0.17272   0.12327 
 C                    -3.057     1.53691   0.03815 
 C                    -1.82753   2.27704  -0.0294 
 C                    -0.59548   1.53329  -0.00271 
 C                    -0.60486   0.1007    0.09353 
 C                    -3.00536   4.49072  -0.15072 
 C                     1.83256  -2.85181   0.29164 
 C                    -3.11957   5.83204  -0.22823 
 C                     1.92174  -4.17668  -0.02224 
 N                     3.01829  -4.98527   0.10869 
 C                     3.0879   -6.22809  -0.63539 
 C                     4.26033  -4.44758   0.62004 
 N                    -4.43072   6.45566  -0.24669 
 O                    -4.43789   7.68039  -0.31586 
 O                    -5.43488   5.75503  -0.19418 
 H                    -0.47812   5.43349  -0.25805 
 H                     1.61945   4.15705  -0.22184 
 H                     2.81719   1.99747  -0.14043 
 H                     2.79838  -0.4381    0.0085 
 H                    -0.70934  -3.78679   0.43023 
 H                    -2.80592  -2.52212   0.30949 
 H                    -4.01802  -0.36311   0.17159 
 H                    -4.01029   2.06409   0.02045 
 H                    -3.96372   3.97086  -0.10622 
 H                     2.73941  -2.33161   0.60001 
 H                    -2.32484   6.5728   -0.28222 
 H                     1.04701  -4.69695  -0.42561 
 H                     2.07271  -6.60285  -0.83301 
 H                     3.60312  -6.11468  -1.61081 
 H                     3.62775  -6.99423  -0.05477 
 H                     4.95169  -5.27164   0.84914 
 H                     4.76004  -3.76752  -0.09973 
 H                     4.07869  -3.88285   1.54848 
 
 ITRead=  0  0  0  0  0  0  0  0  0  0  0  0  0  0  0  0  0  0  0  0
 ITRead=  0  0  0  0  0  0  0  0  0  0  0  0  0  0  0  0  0  0  0  0
 ITRead=  0  0  0  0
 MicOpt= -1 -1 -1 -1 -1 -1 -1 -1 -1 -1 -1 -1 -1 -1 -1 -1 -1 -1 -1 -1
 MicOpt= -1 -1 -1 -1 -1 -1 -1 -1 -1 -1 -1 -1 -1 -1 -1 -1 -1 -1 -1 -1
 MicOpt= -1 -1 -1 -1
 NAtoms=     44 NQM=       44 NQMF=       0 NMMI=      0 NMMIF=      0
                NMic=       0 NMicF=      0.
                    Isotopes and Nuclear Properties:
 (Nuclear quadrupole moments (NQMom) in fm**2, nuclear magnetic moments (NMagM)
  in nuclear magnetons)

  Atom         1           2           3           4           5           6           7           8           9          10
 IAtWgt=          12          12          12          12          12          12          12          12          12          12
 AtmWgt=  12.0000000  12.0000000  12.0000000  12.0000000  12.0000000  12.0000000  12.0000000  12.0000000  12.0000000  12.0000000
 NucSpn=           0           0           0           0           0           0           0           0           0           0
 AtZEff=  -0.0000000  -0.0000000  -0.0000000  -0.0000000  -0.0000000  -0.0000000  -0.0000000  -0.0000000  -0.0000000  -0.0000000
 NQMom=    0.0000000   0.0000000   0.0000000   0.0000000   0.0000000   0.0000000   0.0000000   0.0000000   0.0000000   0.0000000
 NMagM=    0.0000000   0.0000000   0.0000000   0.0000000   0.0000000   0.0000000   0.0000000   0.0000000   0.0000000   0.0000000
 AtZNuc=   6.0000000   6.0000000   6.0000000   6.0000000   6.0000000   6.0000000   6.0000000   6.0000000   6.0000000   6.0000000

  Atom        11          12          13          14          15          16          17          18          19          20
 IAtWgt=          12          12          12          12          12          12          12          12          12          12
 AtmWgt=  12.0000000  12.0000000  12.0000000  12.0000000  12.0000000  12.0000000  12.0000000  12.0000000  12.0000000  12.0000000
 NucSpn=           0           0           0           0           0           0           0           0           0           0
 AtZEff=  -0.0000000  -0.0000000  -0.0000000  -0.0000000  -0.0000000  -0.0000000  -0.0000000  -0.0000000  -0.0000000  -0.0000000
 NQMom=    0.0000000   0.0000000   0.0000000   0.0000000   0.0000000   0.0000000   0.0000000   0.0000000   0.0000000   0.0000000
 NMagM=    0.0000000   0.0000000   0.0000000   0.0000000   0.0000000   0.0000000   0.0000000   0.0000000   0.0000000   0.0000000
 AtZNuc=   6.0000000   6.0000000   6.0000000   6.0000000   6.0000000   6.0000000   6.0000000   6.0000000   6.0000000   6.0000000

  Atom        21          22          23          24          25          26          27          28          29          30
 IAtWgt=          14          12          12          14          16          16           1           1           1           1
 AtmWgt=  14.0030740  12.0000000  12.0000000  14.0030740  15.9949146  15.9949146   1.0078250   1.0078250   1.0078250   1.0078250
 NucSpn=           2           0           0           2           0           0           1           1           1           1
 AtZEff=  -0.0000000  -0.0000000  -0.0000000  -0.0000000  -0.0000000  -0.0000000  -0.0000000  -0.0000000  -0.0000000  -0.0000000
 NQMom=    2.0440000   0.0000000   0.0000000   2.0440000   0.0000000   0.0000000   0.0000000   0.0000000   0.0000000   0.0000000
 NMagM=    0.4037610   0.0000000   0.0000000   0.4037610   0.0000000   0.0000000   2.7928460   2.7928460   2.7928460   2.7928460
 AtZNuc=   7.0000000   6.0000000   6.0000000   7.0000000   8.0000000   8.0000000   1.0000000   1.0000000   1.0000000   1.0000000

  Atom        31          32          33          34          35          36          37          38          39          40
 IAtWgt=           1           1           1           1           1           1           1           1           1           1
 AtmWgt=   1.0078250   1.0078250   1.0078250   1.0078250   1.0078250   1.0078250   1.0078250   1.0078250   1.0078250   1.0078250
 NucSpn=           1           1           1           1           1           1           1           1           1           1
 AtZEff=  -0.0000000  -0.0000000  -0.0000000  -0.0000000  -0.0000000  -0.0000000  -0.0000000  -0.0000000  -0.0000000  -0.0000000
 NQMom=    0.0000000   0.0000000   0.0000000   0.0000000   0.0000000   0.0000000   0.0000000   0.0000000   0.0000000   0.0000000
 NMagM=    2.7928460   2.7928460   2.7928460   2.7928460   2.7928460   2.7928460   2.7928460   2.7928460   2.7928460   2.7928460
 AtZNuc=   1.0000000   1.0000000   1.0000000   1.0000000   1.0000000   1.0000000   1.0000000   1.0000000   1.0000000   1.0000000

  Atom        41          42          43          44
 IAtWgt=           1           1           1           1
 AtmWgt=   1.0078250   1.0078250   1.0078250   1.0078250
 NucSpn=           1           1           1           1
 AtZEff=  -0.0000000  -0.0000000  -0.0000000  -0.0000000
 NQMom=    0.0000000   0.0000000   0.0000000   0.0000000
 NMagM=    2.7928460   2.7928460   2.7928460   2.7928460
 AtZNuc=   1.0000000   1.0000000   1.0000000   1.0000000
 Leave Link  101 at Mon Aug 11 10:15:00 2025, MaxMem=  1342177280 cpu:               0.8 elap:               0.1
 (Enter /opt/bwhpc/common/chem/gaussian/g16.C.01/x86_64-Intel-avx2-source/g16/l106.exe)
 Differentiate once with respect to electric field.
 Nuclear step= 0.001000 Angstroms, electric field step= 0.000333 atomic units, NStep=1.
 Leave Link  106 at Mon Aug 11 10:15:00 2025, MaxMem=  1342177280 cpu:               0.0 elap:               0.0
 (Enter /opt/bwhpc/common/chem/gaussian/g16.C.01/x86_64-Intel-avx2-source/g16/l202.exe)
                          Input orientation:                          
 ---------------------------------------------------------------------
 Center     Atomic      Atomic             Coordinates (Angstroms)
 Number     Number       Type             X           Y           Z
 ---------------------------------------------------------------------
      1          6           0       -1.781185    3.706351   -0.122116
      2          6           0       -0.521579    4.344912   -0.186991
      3          6           0        0.662149    3.632140   -0.166344
      4          6           0        0.654697    2.223239   -0.075691
      5          6           0        1.866173    1.463071   -0.065476
      6          6           0        1.849747    0.098903    0.025498
      7          6           0        0.624489   -0.641519    0.124843
      8          6           0        0.600098   -2.071389    0.234519
      9          6           0       -0.663592   -2.703559    0.299384
     10          6           0       -1.851199   -1.991745    0.248701
     11          6           0       -1.855034   -0.586655    0.152447
     12          6           0       -3.065702    0.172725    0.123268
     13          6           0       -3.056996    1.536910    0.038146
     14          6           0       -1.827525    2.277040   -0.029400
     15          6           0       -0.595476    1.533293   -0.002714
     16          6           0       -0.604864    0.100695    0.093531
     17          6           0       -3.005357    4.490721   -0.150715
     18          6           0        1.832563   -2.851811    0.291638
     19          6           0       -3.119573    5.832043   -0.228233
     20          6           0        1.921736   -4.176685   -0.022240
     21          7           0        3.018285   -4.985275    0.108690
     22          6           0        3.087895   -6.228088   -0.635387
     23          6           0        4.260329   -4.447576    0.620037
     24          7           0       -4.430720    6.455656   -0.246690
     25          8           0       -4.437889    7.680393   -0.315858
     26          8           0       -5.434878    5.755028   -0.194180
     27          1           0       -0.478125    5.433491   -0.258055
     28          1           0        1.619451    4.157050   -0.221841
     29          1           0        2.817195    1.997467   -0.140427
     30          1           0        2.798380   -0.438103    0.008503
     31          1           0       -0.709345   -3.786791    0.430227
     32          1           0       -2.805921   -2.522116    0.309487
     33          1           0       -4.018022   -0.363106    0.171589
     34          1           0       -4.010294    2.064087    0.020445
     35          1           0       -3.963721    3.970861   -0.106225
     36          1           0        2.739414   -2.331605    0.600012
     37          1           0       -2.324841    6.572803   -0.282216
     38          1           0        1.047012   -4.696955   -0.425614
     39          1           0        2.072714   -6.602852   -0.833014
     40          1           0        3.603124   -6.114678   -1.610813
     41          1           0        3.627750   -6.994232   -0.054769
     42          1           0        4.951691   -5.271636    0.849137
     43          1           0        4.760043   -3.767519   -0.099733
     44          1           0        4.078687   -3.882848    1.548483
 ---------------------------------------------------------------------
                    Distance matrix (angstroms):
                    1          2          3          4          5
     1  C    0.000000
     2  C    1.413711   0.000000
     3  C    2.444861   1.381913   0.000000
     4  C    2.852244   2.428479   1.411834   0.000000
     5  C    4.282375   3.744481   2.482884   1.430257   0.000000
     6  C    5.120463   4.867950   3.732419   2.439506   1.367296
     7  C    4.975161   5.125935   4.283733   2.871927   2.450978
     8  C    6.259391   6.527231   5.717935   4.306163   3.766344
     9  C    6.520247   7.066660   6.489652   5.113894   4.888112
    10  C    5.710578   6.489294   6.173918   4.914350   5.084615
    11  C    4.302410   5.119929   4.923014   3.774427   4.253969
    12  C    3.767852   4.896527   5.093948   4.252712   5.101373
    13  C    2.521875   3.789974   4.273622   3.776330   4.924813
    14  C    1.433064   2.450801   2.837874   2.483237   3.782493
    15  C    2.478376   2.818621   2.452255   1.429785   2.463450
    16  C    3.798814   4.254293   3.760846   2.473929   2.826195
    17  C    1.454184   2.488318   3.766697   4.306169   5.736352
    18  C    7.499324   7.587087   6.604637   5.222876   4.329765
    19  C    2.514182   2.993800   4.375481   5.224160   6.631145
    20  C    8.709986   8.866485   7.911073   6.524360   5.640195
    21  N    9.931392   9.983509   8.937945   7.588361   6.552774
    22  C   11.075399  11.181131  10.165055   8.812414   7.808414
    23  C   10.175323  10.041204   8.879589   7.614748   6.413864
    24  N    3.820239   4.442993   5.823745   6.618463   8.038010
    25  O    4.784205   5.145826   6.513148   7.468108   8.857708
    26  O    4.189480   5.111652   6.456095   7.040632   8.470113
    27  H    2.167824   1.091761   2.133893   3.409143   4.614874
    28  H    3.431821   2.149538   1.093177   2.166041   2.709769
    29  H    4.905682   4.081676   2.705005   2.175215   1.093453
    30  H    6.177862   5.825597   4.600102   3.418364   2.118713
    31  H    7.589538   8.157255   7.568185   6.183609   5.868565
    32  H    6.326939   7.254018   7.080169   5.885799   6.152298
    33  H    4.652975   5.875298   6.162807   5.346460   6.165620
    34  H    2.772414   4.173288   4.932080   4.668695   5.907747
    35  H    2.198563   3.463348   4.638644   4.938107   6.346522
    36  H    7.577216   7.471903   6.361493   5.054624   3.950315
    37  H    2.921942   2.867808   4.193213   5.276268   6.612182
    38  H    8.871661   9.180021   8.342012   6.940133   6.224680
    39  H   11.028943  11.269483  10.353222   8.971298   8.104991
    40  H   11.298656  11.333291  10.282815   8.976118   7.926370
    41  H   11.990146  12.075206  11.032997   9.685105   8.638821
    42  H   11.264067  11.113426   9.935220   8.688649   7.464128
    43  H    9.932114   9.680634   8.458849   7.262481   5.977853
    44  H    9.732674   9.584902   8.431394   7.186512   6.006573
                    6          7          8          9         10
     6  C    0.000000
     7  C    1.435044   0.000000
     8  C    2.513062   1.434278   0.000000
     9  C    3.774346   2.437546   1.414482   0.000000
    10  C    4.256481   2.822673   2.452632   1.385518   0.000000
    11  C    3.769816   2.480284   2.870339   2.433600   1.408388
    12  C    4.916976   3.778956   4.299594   3.751554   2.485091
    13  C    5.113135   4.278598   5.141276   4.876290   3.734927
    14  C    4.274299   3.814990   4.987168   5.125350   4.277900
    15  C    2.835028   2.496876   3.805181   4.248155   3.750459
    16  C    2.455555   1.436374   2.487923   2.812413   2.440437
    17  C    6.549133   6.292185   7.497266   7.579190   6.596512
    18  C    2.962742   2.524412   1.459894   2.500566   3.783076
    19  C    7.591273   7.486633   8.747247   8.897569   7.940271
    20  C    4.276460   3.768539   2.498985   2.992902   4.368342
    21  N    5.217400   4.959711   3.788693   4.335759   5.717753
    22  C    6.480787   6.152729   4.921790   5.231611   6.566801
    23  C    5.180236   5.286834   4.380888   5.233489   6.596951
    24  N    8.940171   8.721413   9.912173   9.918703   8.846350
    25  O    9.855449   9.750697  10.990062  11.065726  10.027958
    26  O    9.225279   8.816661   9.892296   9.724016   8.547011
    27  H    5.827282   6.186123   7.597922   8.158231   7.568108
    28  H    4.072194   4.912881   6.327779   7.249270   7.076333
    29  H    2.137295   3.441303   4.648837   5.865915   6.152977
    30  H    1.090215   2.186485   2.747935   4.147548   4.908165
    31  H    4.670265   3.430030   2.166921   1.092064   2.135175
    32  H    5.350293   3.916433   3.436530   2.150022   1.093838
    33  H    5.887743   4.651087   4.924350   4.092219   2.711740
    34  H    6.180782   5.367720   6.197072   5.831696   4.600387
    35  H    6.986116   6.509924   7.579798   7.456759   6.335723
    36  H    2.651216   2.748651   2.185857   3.436449   4.616563
    37  H    7.709297   7.804530   9.140259   9.441870   8.594050
    38  H    4.883456   4.114377   2.743922   2.724961   4.021504
    39  H    6.760198   6.209053   4.882866   4.896343   6.150570
    40  H    6.660363   6.468404   5.363917   5.787007   7.085620
    41  H    7.313023   7.029140   5.786601   6.078726   7.425352
    42  H    6.256446   6.378656   5.436515   6.199084   7.576115
    43  H    4.840942   5.188942   4.504856   5.541401   6.854437
    44  H    4.810613   4.946155   4.136238   5.043826   6.358400
                   11         12         13         14         15
    11  C    0.000000
    12  C    1.429414   0.000000
    13  C    2.442806   1.366866   0.000000
    14  C    2.869595   2.446330   1.436647   0.000000
    15  C    2.470777   2.822948   2.461862   1.439381   0.000000
    16  C    1.427882   2.462071   2.842310   2.499298   1.435858
    17  C    5.214872   4.327101   2.960293   2.510455   3.817828
    18  C    4.329975   5.759268   6.575174   6.309075   5.021070
    19  C    6.553141   5.670480   4.303841   3.787739   4.990109
    20  C    5.213715   6.619144   7.578692   7.463751   6.240239
    21  N    6.564984   7.976219   8.913636   8.731676   7.454086
    22  C    7.541817   8.911381   9.925146   9.842042   8.614321
    23  C    7.247277   8.675522   9.470792   9.094185   7.729000
    24  N    7.509168   6.440137   5.114911   4.927947   6.244860
    25  O    8.673784   7.644659   6.306708   6.007685   7.255966
    26  O    7.290567   6.072552   4.847765   5.013636   6.424914
    27  H    6.189228   5.875085   4.682057   3.440399   3.910309
    28  H    5.891933   6.159919   5.366738   3.931045   3.440642
    29  H    5.347260   6.165038   5.894923   4.654451   3.446845
    30  H    4.658010   5.896926   6.179562   5.363995   3.924893
    31  H    3.410372   4.617836   5.831550   6.183173   5.338885
    32  H    2.162141   2.713730   4.075825   4.909582   4.629241
    33  H    2.174593   1.093784   2.133410   3.436429   3.916699
    34  H    3.418918   2.116620   1.089499   2.193699   3.455903
    35  H    5.028361   3.909596   2.601367   2.727318   4.159030
    36  H    4.934990   6.340215   6.991385   6.518643   5.140253
    37  H    7.188010   6.455563   5.098912   4.331838   5.335306
    38  H    5.064642   6.397614   7.477902   7.553579   6.456980
    39  H    7.252101   8.557233   9.660671   9.731914   8.602644
    40  H    7.966155   9.328007  10.277308  10.119968   8.871622
    41  H    8.435693   9.808122  10.838581  10.757191   9.516145
    42  H    8.292523   9.718360  10.542915  10.183914   8.820644
    43  H    7.344436   8.764561   9.447860   8.940788   7.535887
    44  H    6.929853   8.337938   9.086961   8.678553   7.320423
                   16         17         18         19         20
    16  C    0.000000
    17  C    5.009426   0.000000
    18  C    3.833743   8.804199   0.000000
    19  C    6.267028   1.348407  10.010157   0.000000
    20  C    4.969214   9.970791   1.364464  11.208562   0.000000
    21  N    6.244560  11.231476   2.447667  12.441913   1.368715
    22  C    7.363511  12.339185   3.719473  13.570011   2.438059
    23  C    6.680874  11.544583   2.923757  12.682787   2.440270
    24  N    7.425526   2.429370  11.231538   1.452011  12.387523
    25  O    8.503617   3.500490  12.272528   2.272010  13.458133
    26  O    7.441995   2.739149  11.275167   2.316835  12.360755
    27  H    5.345876   2.699488   8.619029   2.671513   9.908099
    28  H    4.636922   4.637374   7.030875   5.026330   8.341604
    29  H    3.919562   6.333919   4.967059   7.068020   6.239869
    30  H    3.446680   7.615906   2.615139   8.625135   3.840110
    31  H    3.903438   8.609667   2.711953   9.938045   2.698023
    32  H    3.430805   7.030750   4.650220   8.377320   5.019799
    33  H    3.445410   4.968803   6.359041   6.272714   7.061280
    34  H    3.931565   2.632061   7.640588   3.879783   8.610345
    35  H    5.128353   1.091190   8.961253   2.047308  10.051277
    36  H    4.166150   8.950425   1.089994  10.082603   2.111898
    37  H    6.707286   2.194416  10.316815   1.087768  11.560817
    38  H    5.100554  10.045429   2.129812  11.325158   1.094776
    39  H    7.277737  12.219644   3.923369  13.488967   2.562506
    40  H    7.696936  12.580874   4.171392  13.777893   3.017690
    41  H    8.262869  13.263162   4.527952  14.493785   3.293951
    42  H    7.765834  12.633998   3.986893  13.769449   3.337490
    43  H    6.616847  11.335897   3.092221  12.420002   2.868694
    44  H    6.318319  11.098991   2.772683  12.220916   2.684390
                   21         22         23         24         25
    21  N    0.000000
    22  C    1.450200   0.000000
    23  C    1.446813   2.474048   0.000000
    24  N   13.656824  14.749848  13.970182   0.000000
    25  O   14.703534  15.817249  14.954013   1.226710   0.000000
    26  O   13.671203  14.711472  14.097982   1.225549   2.171594
    27  H   10.995911  12.200463  10.993610   4.082641   4.553201
    28  H    9.254625  10.496592   9.040054   6.472153   7.008148
    29  H    6.990077   8.244878   6.648272   8.509935   9.217519
    30  H    4.553588   5.832867   4.311280   9.992443  10.880201
    31  H    3.928737   4.638372   5.017003  10.918542  12.081183
    32  H    6.326835   7.025958   7.330465   9.140552  10.351114
    33  H    8.418908   9.248961   9.242028   6.844033   8.069186
    34  H    9.955010  10.935016  10.543456   4.419728   5.642591
    35  H   11.358123  12.410635  11.791205   2.532197   3.745585
    36  H    2.713140   4.102466   2.605938  11.372936  12.352838
    37  H   12.739347  13.902707  12.869626   2.109433   2.385971
    38  H    2.062651   2.559996   3.388360  12.426515  13.538646
    39  H    2.097014   1.100044   3.397386  14.600104  15.705619
    40  H    2.138756   1.108954   2.861440  14.980546  16.019950
    41  H    2.105725   1.102514   2.709424  15.680409  16.747158
    42  H    2.090053   2.567556   1.099792  15.058546  16.039840
    43  H    2.135436   3.022814   1.109171  13.747909  14.686842
    44  H    2.100667   3.354268   1.101782  13.509896  14.481587
                   26         27         28         29         30
    26  O    0.000000
    27  H    4.967582   0.000000
    28  H    7.233108   2.455695   0.000000
    29  H    9.067462   4.762272   2.470834   0.000000
    30  H   10.304489   6.729202   4.749565   2.440192   0.000000
    31  H   10.666155   9.248826   8.303799   6.798511   4.867822
    32  H    8.699208   8.308575   8.029786   7.228311   5.986809
    33  H    6.290694   6.805586   7.236552   7.238083   6.818765
    34  H    3.962140   4.889444   6.011092   6.829709   7.253906
    35  H    2.314150   3.783083   5.587471   7.062313   8.073298
    36  H   11.525773   8.448997   6.635692   4.392626   1.984618
    37  H    3.216960   2.170018   4.625683   6.884355   8.688194
    38  H   12.300911  10.245978   8.874830   6.930380   4.625318
    39  H   14.473744  12.317098  10.786773   8.660220   6.264094
    40  H   14.986069  12.322612  10.553322   8.281704   5.957625
    41  H   15.642708  13.089990  11.331914   9.028565   6.608683
    42  H   15.184092  12.054398  10.057382   7.640364   5.357840
    43  H   13.950779  10.588770   8.525082   6.083697   3.865856
    44  H   13.654063  10.527216   8.591964   6.246749   3.984594
                   31         32         33         34         35
    31  H    0.000000
    32  H    2.451451   0.000000
    33  H    4.768213   2.479824   0.000000
    34  H    6.730302   4.750507   2.431907   0.000000
    35  H    8.429704   6.608484   4.343201   1.911544   0.000000
    36  H    3.747043   5.556207   7.051346   8.075678   9.227777
    37  H   10.508976   9.126834   7.153994   4.822953   3.080098
    38  H    2.155377   4.485018   6.692792   8.454999  10.017010
    39  H    4.155217   6.462104   8.777285  10.622957  12.197138
    40  H    5.308700   7.594071   9.712848  11.292358  12.697993
    41  H    5.416022   7.843763  10.123285  11.848988  13.336654
    42  H    5.867501   8.248128  10.247365  11.611061  12.877151
    43  H    5.495037   7.678691   9.419027  10.532848  11.661330
    44  H    4.917822   7.126326   8.935386  10.155420  11.362180
                   36         37         38         39         40
    36  H    0.000000
    37  H   10.281707   0.000000
    38  H    3.083993  11.764243   0.000000
    39  H    4.554295  13.901070   2.202381   0.000000
    40  H    4.466026  14.066916   3.154100   1.784780   0.000000
    41  H    4.791448  14.817204   3.474941   1.782408   1.787595
    42  H    3.687819  13.946993   4.147501   3.590302   2.929284
    43  H    2.575739  12.535994   3.841438   3.974739   3.021751
    44  H    2.258230  12.396664   3.708219   4.134475   3.897227
                   41         42         43         44
    41  H    0.000000
    42  H    2.353126   0.000000
    43  H    3.419911   1.788701   0.000000
    44  H    3.529090   1.783243   1.787222   0.000000
 Stoichiometry    C22H18N2O2
 Framework group  C1[X(C22H18N2O2)]
 Deg. of freedom   126
 Full point group                 C1      NOp   1
 Largest Abelian subgroup         C1      NOp   1
 Largest concise Abelian subgroup C1      NOp   1
                         Standard orientation:                         
 ---------------------------------------------------------------------
 Center     Atomic      Atomic             Coordinates (Angstroms)
 Number     Number       Type             X           Y           Z
 ---------------------------------------------------------------------
      1          6           0        3.186529    0.523838    0.027045
      2          6           0        3.072340    1.932403    0.065572
      3          6           0        1.845028    2.567512    0.060567
      4          6           0        0.646930    1.822125    0.013312
      5          6           0       -0.635032    2.456289    0.020043
      6          6           0       -1.790342    1.726656   -0.028861
      7          6           0       -1.781695    0.293348   -0.098892
      8          6           0       -2.989228   -0.477834   -0.164426
      9          6           0       -2.867458   -1.886534   -0.203118
     10          6           0       -1.638227   -2.524829   -0.168042
     11          6           0       -0.437333   -1.790936   -0.115011
     12          6           0        0.843977   -2.424434   -0.102767
     13          6           0        2.003208   -1.701489   -0.059673
     14          6           0        1.991362   -0.265400   -0.021439
     15          6           0        0.712227    0.394544   -0.031784
     16          6           0       -0.505170   -0.365007   -0.083889
     17          6           0        4.496179   -0.108100    0.038012
     18          6           0       -4.300526    0.162648   -0.204065
     19          6           0        5.700123    0.498002    0.074862
     20          6           0       -5.468185   -0.448115    0.149918
     21          7           0       -6.734034    0.060314    0.038092
     22          6           0       -7.811491   -0.515310    0.819645
     23          6           0       -6.938417    1.389263   -0.496129
     24          7           0        6.918168   -0.292355    0.081096
     25          8           0        7.966578    0.343773    0.112615
     26          8           0        6.846035   -1.515511    0.055479
     27          1           0        3.978330    2.540458    0.102904
     28          1           0        1.792118    3.658870    0.094819
     29          1           0       -0.676120    3.547662    0.073481
     30          1           0       -2.743987    2.254217   -0.000398
     31          1           0       -3.769090   -2.494981   -0.300353
     32          1           0       -1.591443   -3.616956   -0.207426
     33          1           0        0.885147   -3.517115   -0.129538
     34          1           0        2.951737   -2.237452   -0.053129
     35          1           0        4.554204   -1.197495    0.014611
     36          1           0       -4.339547    1.201062   -0.533094
     37          1           0        5.916125    1.563767    0.101827
     38          1           0       -5.443816   -1.457234    0.573733
     39          1           0       -7.594477   -1.572200    1.034085
     40          1           0       -7.961841    0.003087    1.788376
     41          1           0       -8.760235   -0.468217    0.259999
     42          1           0       -8.007584    1.542376   -0.703451
     43          1           0       -6.604051    2.185653    0.199732
     44          1           0       -6.384103    1.510851   -1.440521
 ---------------------------------------------------------------------
 Rotational constants (GHZ):           0.6879019           0.0739567           0.0671651
 Leave Link  202 at Mon Aug 11 10:15:00 2025, MaxMem=  1342177280 cpu:               0.1 elap:               0.0
 (Enter /opt/bwhpc/common/chem/gaussian/g16.C.01/x86_64-Intel-avx2-source/g16/l301.exe)
 Standard basis: CC-pVDZ (5D, 7F)
 Ernie: Thresh=  0.10000D-02 Tol=  0.10000D-05 Strict=F.
 Ernie:  52 primitive shells out of 662 were deleted.
 There are   480 symmetry adapted cartesian basis functions of A   symmetry.
 There are   454 symmetry adapted basis functions of A   symmetry.
   454 basis functions,   984 primitive gaussians,   480 cartesian basis functions
    90 alpha electrons       90 beta electrons
       nuclear repulsion energy      2038.6634330680 Hartrees.
 IExCor=    0 DFT=F Ex=HF Corr=None ExCW=0 ScaHFX=  1.000000
 ScaDFX=  1.000000  1.000000  1.000000  1.000000 ScalE2=  1.000000  1.000000
 IRadAn=      5 IRanWt=     -1 IRanGd=            0 ICorTp=0 IEmpDi=  4
 NAtoms=   44 NActive=   44 NUniq=   44 SFac= 1.00D+00 NAtFMM=   60 NAOKFM=F Big=F
 Integral buffers will be    131072 words long.
 Raffenetti 1 integral format.
 Two-electron integral symmetry is turned on.
 Leave Link  301 at Mon Aug 11 10:15:01 2025, MaxMem=  1342177280 cpu:               0.4 elap:               0.1
 (Enter /opt/bwhpc/common/chem/gaussian/g16.C.01/x86_64-Intel-avx2-source/g16/l302.exe)
 NPDir=0 NMtPBC=     1 NCelOv=     1 NCel=       1 NClECP=     1 NCelD=      1
         NCelK=      1 NCelE2=     1 NClLst=     1 CellRange=     0.0.
 One-electron integrals computed using PRISM.
 One-electron integral symmetry used in STVInt
 NBasis=   454 RedAO= T EigKep=  6.92D-05  NBF=   454
 NBsUse=   454 1.00D-06 EigRej= -1.00D+00 NBFU=   454
 Leave Link  302 at Mon Aug 11 10:15:01 2025, MaxMem=  1342177280 cpu:               3.5 elap:               0.5
 (Enter /opt/bwhpc/common/chem/gaussian/g16.C.01/x86_64-Intel-avx2-source/g16/l303.exe)
 DipDrv:  MaxL=1.
 Leave Link  303 at Mon Aug 11 10:15:01 2025, MaxMem=  1342177280 cpu:               0.6 elap:               0.1
 (Enter /opt/bwhpc/common/chem/gaussian/g16.C.01/x86_64-Intel-avx2-source/g16/l401.exe)
 ExpMin= 1.22D-01 ExpMax= 1.17D+04 ExpMxC= 4.01D+02 IAcc=3 IRadAn=         5 AccDes= 0.00D+00
 Harris functional with IExCor=  205 and IRadAn=       5 diagonalized for initial guess.
 HarFok:  IExCor=  205 AccDes= 0.00D+00 IRadAn=         5 IDoV= 1 UseB2=F ITyADJ=14
 ICtDFT=  3500011 ScaDFX=  1.000000  1.000000  1.000000  1.000000
 FoFCou: FMM=F IPFlag=           0 FMFlag=      100000 FMFlg1=           0
         NFxFlg=           0 DoJE=T BraDBF=F KetDBF=T FulRan=T
         wScrn=  0.000000 ICntrl=       500 IOpCl=  0 I1Cent=   200000004 NGrid=           0
         NMat0=    1 NMatS0=      1 NMatT0=    0 NMatD0=    1 NMtDS0=    0 NMtDT0=    0
 Petite list used in FoFCou.
 Harris En= -1103.46009564387    
 JPrj=0 DoOrth=F DoCkMO=F.
 Leave Link  401 at Mon Aug 11 10:15:04 2025, MaxMem=  1342177280 cpu:              19.4 elap:               2.4
 (Enter /opt/bwhpc/common/chem/gaussian/g16.C.01/x86_64-Intel-avx2-source/g16/l502.exe)
 Integral symmetry usage will be decided dynamically.
 Closed shell SCF:
 Using DIIS extrapolation, IDIIS=  1040.
 NGot=  1342177280 LenX=  1341706554 LenY=  1341475674
 Requested convergence on RMS density matrix=1.00D-08 within 128 cycles.
 Requested convergence on MAX density matrix=1.00D-06.
 Requested convergence on             energy=1.00D-06.
 No special actions if energy rises.
 Fock matrices will be formed incrementally for  20 cycles.
 Integral accuracy reduced to 1.0D-05 until final iterations.

 Cycle   1  Pass 0  IDiag  1:
 FoFJK:  IHMeth= 1 ICntrl=       0 DoSepK=F KAlg= 0 I1Cent=           0 FoldK=F
 IRaf= 700000000 NMat=       1 IRICut=       1 DoRegI=T DoRafI=F ISym2E= 0 IDoP0=0 IntGTp=1.
 FoFCou: FMM=F IPFlag=           0 FMFlag=      100000 FMFlg1=           0
         NFxFlg=           0 DoJE=F BraDBF=F KetDBF=F FulRan=T
         wScrn=  0.000000 ICntrl=         0 IOpCl=  0 I1Cent=           0 NGrid=           0
         NMat0=    1 NMatS0=      1 NMatT0=    0 NMatD0=    1 NMtDS0=    0 NMtDT0=    0
 Symmetry not used in FoFCou.
 E= -1101.26457597192    
 DIIS: error= 4.43D-02 at cycle   1 NSaved=   1.
 NSaved= 1 IEnMin= 1 EnMin= -1101.26457597192     IErMin= 1 ErrMin= 4.43D-02
 ErrMax= 4.43D-02  0.00D+00 EMaxC= 1.00D-01 BMatC= 1.07D+00 BMatP= 1.07D+00
 IDIUse=3 WtCom= 5.57D-01 WtEn= 4.43D-01
 Coeff-Com:  0.100D+01
 Coeff-En:   0.100D+01
 Coeff:      0.100D+01
 Gap=     0.262 Goal=   None    Shift=    0.000
 GapD=    0.262 DampG=1.000 DampE=0.500 DampFc=0.5000 IDamp=-1.
 Damping current iteration by 5.00D-01
 RMSDP=7.29D-03 MaxDP=2.86D-01              OVMax= 1.79D-01

 Cycle   2  Pass 0  IDiag  1:
 RMSU=  3.15D-03    CP:  8.94D-01
 E= -1101.72493778983     Delta-E=       -0.460361817916 Rises=F Damp=T
 DIIS: error= 1.81D-02 at cycle   2 NSaved=   2.
 NSaved= 2 IEnMin= 2 EnMin= -1101.72493778983     IErMin= 2 ErrMin= 1.81D-02
 ErrMax= 1.81D-02  0.00D+00 EMaxC= 1.00D-01 BMatC= 2.07D-01 BMatP= 1.07D+00
 IDIUse=3 WtCom= 8.19D-01 WtEn= 1.81D-01
 Coeff-Com: -0.546D+00 0.155D+01
 Coeff-En:   0.000D+00 0.100D+01
 Coeff:     -0.447D+00 0.145D+01
 Gap=     0.306 Goal=   None    Shift=    0.000
 RMSDP=3.55D-03 MaxDP=1.42D-01 DE=-4.60D-01 OVMax= 1.02D-01

 Cycle   3  Pass 0  IDiag  1:
 RMSU=  9.67D-04    CP:  7.89D-01  1.92D+00
 E= -1102.14440515927     Delta-E=       -0.419467369436 Rises=F Damp=F
 DIIS: error= 1.09D-02 at cycle   3 NSaved=   3.
 NSaved= 3 IEnMin= 3 EnMin= -1102.14440515927     IErMin= 3 ErrMin= 1.09D-02
 ErrMax= 1.09D-02  0.00D+00 EMaxC= 1.00D-01 BMatC= 1.44D-02 BMatP= 2.07D-01
 IDIUse=3 WtCom= 8.91D-01 WtEn= 1.09D-01
 Coeff-Com: -0.185D+00 0.366D+00 0.820D+00
 Coeff-En:   0.000D+00 0.000D+00 0.100D+01
 Coeff:     -0.165D+00 0.326D+00 0.839D+00
 Gap=     0.254 Goal=   None    Shift=    0.000
 RMSDP=3.03D-04 MaxDP=2.13D-02 DE=-4.19D-01 OVMax= 2.92D-02

 Cycle   4  Pass 0  IDiag  1:
 RMSU=  2.73D-04    CP:  7.86D-01  1.96D+00  9.60D-01
 E= -1102.15641025161     Delta-E=       -0.012005092343 Rises=F Damp=F
 DIIS: error= 2.38D-03 at cycle   4 NSaved=   4.
 NSaved= 4 IEnMin= 4 EnMin= -1102.15641025161     IErMin= 4 ErrMin= 2.38D-03
 ErrMax= 2.38D-03  0.00D+00 EMaxC= 1.00D-01 BMatC= 1.65D-03 BMatP= 1.44D-02
 IDIUse=3 WtCom= 9.76D-01 WtEn= 2.38D-02
 Coeff-Com: -0.346D-02-0.206D-01 0.238D+00 0.786D+00
 Coeff-En:   0.000D+00 0.000D+00 0.000D+00 0.100D+01
 Coeff:     -0.338D-02-0.201D-01 0.232D+00 0.791D+00
 Gap=     0.257 Goal=   None    Shift=    0.000
 RMSDP=1.22D-04 MaxDP=6.99D-03 DE=-1.20D-02 OVMax= 1.07D-02

 Cycle   5  Pass 0  IDiag  1:
 RMSU=  8.91D-05    CP:  7.84D-01  1.97D+00  1.03D+00  9.87D-01
 E= -1102.15838702741     Delta-E=       -0.001976775797 Rises=F Damp=F
 DIIS: error= 3.88D-04 at cycle   5 NSaved=   5.
 NSaved= 5 IEnMin= 5 EnMin= -1102.15838702741     IErMin= 5 ErrMin= 3.88D-04
 ErrMax= 3.88D-04  0.00D+00 EMaxC= 1.00D-01 BMatC= 9.61D-05 BMatP= 1.65D-03
 IDIUse=3 WtCom= 9.96D-01 WtEn= 3.88D-03
 Coeff-Com:  0.122D-01-0.204D-01-0.912D-01-0.970D-01 0.120D+01
 Coeff-En:   0.000D+00 0.000D+00 0.000D+00 0.000D+00 0.100D+01
 Coeff:      0.122D-01-0.204D-01-0.909D-01-0.966D-01 0.120D+01
 Gap=     0.261 Goal=   None    Shift=    0.000
 RMSDP=6.01D-05 MaxDP=2.20D-03 DE=-1.98D-03 OVMax= 8.54D-03

 Cycle   6  Pass 0  IDiag  1:
 RMSU=  2.91D-05    CP:  7.84D-01  1.97D+00  1.05D+00  1.11D+00  1.36D+00
 E= -1102.15875263150     Delta-E=       -0.000365604094 Rises=F Damp=F
 DIIS: error= 1.75D-04 at cycle   6 NSaved=   6.
 NSaved= 6 IEnMin= 6 EnMin= -1102.15875263150     IErMin= 6 ErrMin= 1.75D-04
 ErrMax= 1.75D-04  0.00D+00 EMaxC= 1.00D-01 BMatC= 1.96D-05 BMatP= 9.61D-05
 IDIUse=3 WtCom= 9.98D-01 WtEn= 1.75D-03
 Coeff-Com:  0.310D-02-0.208D-02-0.474D-01-0.117D+00 0.232D+00 0.932D+00
 Coeff-En:   0.000D+00 0.000D+00 0.000D+00 0.000D+00 0.000D+00 0.100D+01
 Coeff:      0.310D-02-0.207D-02-0.473D-01-0.117D+00 0.232D+00 0.932D+00
 Gap=     0.262 Goal=   None    Shift=    0.000
 RMSDP=2.44D-05 MaxDP=8.43D-04 DE=-3.66D-04 OVMax= 3.91D-03

 Cycle   7  Pass 0  IDiag  1:
 RMSU=  1.37D-05    CP:  7.84D-01  1.97D+00  1.06D+00  1.15D+00  1.53D+00
                    CP:  1.26D+00
 E= -1102.15881686363     Delta-E=       -0.000064232126 Rises=F Damp=F
 DIIS: error= 8.13D-05 at cycle   7 NSaved=   7.
 NSaved= 7 IEnMin= 7 EnMin= -1102.15881686363     IErMin= 7 ErrMin= 8.13D-05
 ErrMax= 8.13D-05  0.00D+00 EMaxC= 1.00D-01 BMatC= 4.22D-06 BMatP= 1.96D-05
 IDIUse=1 WtCom= 1.00D+00 WtEn= 0.00D+00
 Coeff-Com: -0.161D-02 0.320D-02 0.982D-02-0.149D-02-0.192D+00 0.178D+00
 Coeff-Com:  0.100D+01
 Coeff:     -0.161D-02 0.320D-02 0.982D-02-0.149D-02-0.192D+00 0.178D+00
 Coeff:      0.100D+01
 Gap=     0.263 Goal=   None    Shift=    0.000
 RMSDP=1.19D-05 MaxDP=4.75D-04 DE=-6.42D-05 OVMax= 1.93D-03

 Cycle   8  Pass 0  IDiag  1:
 RMSU=  5.54D-06    CP:  7.84D-01  1.97D+00  1.06D+00  1.16D+00  1.59D+00
                    CP:  1.54D+00  1.20D+00
 E= -1102.15882745515     Delta-E=       -0.000010591522 Rises=F Damp=F
 DIIS: error= 4.07D-05 at cycle   8 NSaved=   8.
 NSaved= 8 IEnMin= 8 EnMin= -1102.15882745515     IErMin= 8 ErrMin= 4.07D-05
 ErrMax= 4.07D-05  0.00D+00 EMaxC= 1.00D-01 BMatC= 7.25D-07 BMatP= 4.22D-06
 IDIUse=1 WtCom= 1.00D+00 WtEn= 0.00D+00
 Coeff-Com: -0.112D-02 0.140D-02 0.128D-01 0.237D-01-0.938D-01-0.143D+00
 Coeff-Com:  0.208D+00 0.991D+00
 Coeff:     -0.112D-02 0.140D-02 0.128D-01 0.237D-01-0.938D-01-0.143D+00
 Coeff:      0.208D+00 0.991D+00
 Gap=     0.263 Goal=   None    Shift=    0.000
 RMSDP=5.82D-06 MaxDP=2.06D-04 DE=-1.06D-05 OVMax= 8.75D-04

 Initial convergence to 1.0D-05 achieved.  Increase integral accuracy.
 Cycle   9  Pass 1  IDiag  1:
 E= -1102.15878566034     Delta-E=        0.000041794817 Rises=F Damp=F
 DIIS: error= 2.21D-04 at cycle   1 NSaved=   1.
 NSaved= 1 IEnMin= 1 EnMin= -1102.15878566034     IErMin= 1 ErrMin= 2.21D-04
 ErrMax= 2.21D-04  0.00D+00 EMaxC= 1.00D-01 BMatC= 1.29D-05 BMatP= 1.29D-05
 IDIUse=3 WtCom= 9.98D-01 WtEn= 2.21D-03
 Coeff-Com:  0.100D+01
 Coeff-En:   0.100D+01
 Coeff:      0.100D+01
 Gap=     0.263 Goal=   None    Shift=    0.000
 RMSDP=5.82D-06 MaxDP=2.06D-04 DE= 4.18D-05 OVMax= 3.45D-04

 Cycle  10  Pass 1  IDiag  1:
 RMSU=  2.39D-04    CP:  1.00D+00
 E= -1102.15879419083     Delta-E=       -0.000008530492 Rises=F Damp=F
 DIIS: error= 1.13D-05 at cycle   2 NSaved=   2.
 NSaved= 2 IEnMin= 2 EnMin= -1102.15879419083     IErMin= 2 ErrMin= 1.13D-05
 ErrMax= 1.13D-05  0.00D+00 EMaxC= 1.00D-01 BMatC= 5.79D-08 BMatP= 1.29D-05
 IDIUse=1 WtCom= 1.00D+00 WtEn= 0.00D+00
 Coeff-Com: -0.256D-01 0.103D+01
 Coeff:     -0.256D-01 0.103D+01
 Gap=     0.263 Goal=   None    Shift=    0.000
 RMSDP=9.84D-06 MaxDP=5.15D-04 DE=-8.53D-06 OVMax= 1.36D-04

 Cycle  11  Pass 1  IDiag  1:
 RMSU=  2.71D-06    CP:  1.00D+00  1.04D+00
 E= -1102.15879432271     Delta-E=       -0.000000131886 Rises=F Damp=F
 DIIS: error= 7.70D-06 at cycle   3 NSaved=   3.
 NSaved= 3 IEnMin= 3 EnMin= -1102.15879432271     IErMin= 3 ErrMin= 7.70D-06
 ErrMax= 7.70D-06  0.00D+00 EMaxC= 1.00D-01 BMatC= 2.88D-08 BMatP= 5.79D-08
 IDIUse=1 WtCom= 1.00D+00 WtEn= 0.00D+00
 Coeff-Com: -0.123D-01 0.387D+00 0.625D+00
 Coeff:     -0.123D-01 0.387D+00 0.625D+00
 Gap=     0.263 Goal=   None    Shift=    0.000
 RMSDP=4.87D-07 MaxDP=2.85D-05 DE=-1.32D-07 OVMax= 5.80D-05

 Cycle  12  Pass 1  IDiag  1:
 RMSU=  4.29D-07    CP:  1.00D+00  1.04D+00  1.06D+00
 E= -1102.15879436884     Delta-E=       -0.000000046127 Rises=F Damp=F
 DIIS: error= 4.12D-06 at cycle   4 NSaved=   4.
 NSaved= 4 IEnMin= 4 EnMin= -1102.15879436884     IErMin= 4 ErrMin= 4.12D-06
 ErrMax= 4.12D-06  0.00D+00 EMaxC= 1.00D-01 BMatC= 6.97D-09 BMatP= 2.88D-08
 IDIUse=1 WtCom= 1.00D+00 WtEn= 0.00D+00
 Coeff-Com:  0.135D-01-0.503D+00-0.224D+00 0.171D+01
 Coeff:      0.135D-01-0.503D+00-0.224D+00 0.171D+01
 Gap=     0.263 Goal=   None    Shift=    0.000
 RMSDP=8.28D-07 MaxDP=4.07D-05 DE=-4.61D-08 OVMax= 1.43D-04

 Cycle  13  Pass 1  IDiag  1:
 RMSU=  5.28D-07    CP:  1.00D+00  1.04D+00  1.20D+00  2.05D+00
 E= -1102.15879441913     Delta-E=       -0.000000050288 Rises=F Damp=F
 DIIS: error= 1.47D-06 at cycle   5 NSaved=   5.
 NSaved= 5 IEnMin= 5 EnMin= -1102.15879441913     IErMin= 5 ErrMin= 1.47D-06
 ErrMax= 1.47D-06  0.00D+00 EMaxC= 1.00D-01 BMatC= 1.24D-09 BMatP= 6.97D-09
 IDIUse=1 WtCom= 1.00D+00 WtEn= 0.00D+00
 Coeff-Com:  0.340D-02-0.112D+00-0.169D+00 0.103D+00 0.117D+01
 Coeff:      0.340D-02-0.112D+00-0.169D+00 0.103D+00 0.117D+01
 Gap=     0.263 Goal=   None    Shift=    0.000
 RMSDP=3.66D-07 MaxDP=1.83D-05 DE=-5.03D-08 OVMax= 6.22D-05

 Cycle  14  Pass 1  IDiag  1:
 RMSU=  1.09D-07    CP:  1.00D+00  1.04D+00  1.22D+00  2.58D+00  1.48D+00
 E= -1102.15879442767     Delta-E=       -0.000000008539 Rises=F Damp=F
 DIIS: error= 5.91D-07 at cycle   6 NSaved=   6.
 NSaved= 6 IEnMin= 6 EnMin= -1102.15879442767     IErMin= 6 ErrMin= 5.91D-07
 ErrMax= 5.91D-07  0.00D+00 EMaxC= 1.00D-01 BMatC= 2.92D-10 BMatP= 1.24D-09
 IDIUse=1 WtCom= 1.00D+00 WtEn= 0.00D+00
 Coeff-Com: -0.196D-02 0.768D-01-0.102D-02-0.306D+00 0.318D+00 0.915D+00
 Coeff:     -0.196D-02 0.768D-01-0.102D-02-0.306D+00 0.318D+00 0.915D+00
 Gap=     0.263 Goal=   None    Shift=    0.000
 RMSDP=1.30D-07 MaxDP=5.83D-06 DE=-8.54D-09 OVMax= 2.34D-05

 Cycle  15  Pass 1  IDiag  1:
 RMSU=  5.89D-08    CP:  1.00D+00  1.04D+00  1.21D+00  2.71D+00  1.62D+00
                    CP:  1.43D+00
 E= -1102.15879442897     Delta-E=       -0.000000001303 Rises=F Damp=F
 DIIS: error= 3.45D-07 at cycle   7 NSaved=   7.
 NSaved= 7 IEnMin= 7 EnMin= -1102.15879442897     IErMin= 7 ErrMin= 3.45D-07
 ErrMax= 3.45D-07  0.00D+00 EMaxC= 1.00D-01 BMatC= 7.68D-11 BMatP= 2.92D-10
 IDIUse=1 WtCom= 1.00D+00 WtEn= 0.00D+00
 Coeff-Com: -0.221D-03 0.309D-02 0.360D-01 0.794D-01-0.355D+00-0.508D+00
 Coeff-Com:  0.174D+01
 Coeff:     -0.221D-03 0.309D-02 0.360D-01 0.794D-01-0.355D+00-0.508D+00
 Coeff:      0.174D+01
 Gap=     0.263 Goal=   None    Shift=    0.000
 RMSDP=1.03D-07 MaxDP=4.77D-06 DE=-1.30D-09 OVMax= 2.46D-05

 Cycle  16  Pass 1  IDiag  1:
 RMSU=  3.65D-08    CP:  1.00D+00  1.04D+00  1.21D+00  2.77D+00  1.69D+00
                    CP:  1.99D+00  2.03D+00
 E= -1102.15879442976     Delta-E=       -0.000000000793 Rises=F Damp=F
 DIIS: error= 2.07D-07 at cycle   8 NSaved=   8.
 NSaved= 8 IEnMin= 8 EnMin= -1102.15879442976     IErMin= 8 ErrMin= 2.07D-07
 ErrMax= 2.07D-07  0.00D+00 EMaxC= 1.00D-01 BMatC= 1.83D-11 BMatP= 7.68D-11
 IDIUse=1 WtCom= 1.00D+00 WtEn= 0.00D+00
 Coeff-Com:  0.431D-03-0.185D-01 0.865D-02 0.950D-01-0.167D+00-0.425D+00
 Coeff-Com:  0.552D+00 0.954D+00
 Coeff:      0.431D-03-0.185D-01 0.865D-02 0.950D-01-0.167D+00-0.425D+00
 Coeff:      0.552D+00 0.954D+00
 Gap=     0.263 Goal=   None    Shift=    0.000
 RMSDP=4.62D-08 MaxDP=2.45D-06 DE=-7.93D-10 OVMax= 1.17D-05

 Cycle  17  Pass 1  IDiag  1:
 RMSU=  1.14D-08    CP:  1.00D+00  1.04D+00  1.22D+00  2.79D+00  1.72D+00
                    CP:  2.20D+00  2.49D+00  1.49D+00
 E= -1102.15879442986     Delta-E=       -0.000000000095 Rises=F Damp=F
 DIIS: error= 5.85D-08 at cycle   9 NSaved=   9.
 NSaved= 9 IEnMin= 9 EnMin= -1102.15879442986     IErMin= 9 ErrMin= 5.85D-08
 ErrMax= 5.85D-08  0.00D+00 EMaxC= 1.00D-01 BMatC= 2.68D-12 BMatP= 1.83D-11
 IDIUse=1 WtCom= 1.00D+00 WtEn= 0.00D+00
 Coeff-Com: -0.136D-04 0.153D-02-0.583D-02-0.234D-01 0.775D-01 0.966D-01
 Coeff-Com: -0.322D+00-0.617D-01 0.124D+01
 Coeff:     -0.136D-04 0.153D-02-0.583D-02-0.234D-01 0.775D-01 0.966D-01
 Coeff:     -0.322D+00-0.617D-01 0.124D+01
 Gap=     0.263 Goal=   None    Shift=    0.000
 RMSDP=1.73D-08 MaxDP=8.04D-07 DE=-9.50D-11 OVMax= 3.73D-06

 Cycle  18  Pass 1  IDiag  1:
 RMSU=  6.49D-09    CP:  1.00D+00  1.04D+00  1.22D+00  2.80D+00  1.72D+00
                    CP:  2.25D+00  2.63D+00  1.78D+00  1.40D+00
 E= -1102.15879442985     Delta-E=        0.000000000004 Rises=F Damp=F
 DIIS: error= 2.79D-08 at cycle  10 NSaved=  10.
 NSaved=10 IEnMin= 9 EnMin= -1102.15879442986     IErMin=10 ErrMin= 2.79D-08
 ErrMax= 2.79D-08  0.00D+00 EMaxC= 1.00D-01 BMatC= 6.38D-13 BMatP= 2.68D-12
 IDIUse=1 WtCom= 1.00D+00 WtEn= 0.00D+00
 Coeff-Com: -0.123D-03 0.556D-02-0.386D-02-0.340D-01 0.725D-01 0.141D+00
 Coeff-Com: -0.245D+00-0.264D+00 0.378D+00 0.950D+00
 Coeff:     -0.123D-03 0.556D-02-0.386D-02-0.340D-01 0.725D-01 0.141D+00
 Coeff:     -0.245D+00-0.264D+00 0.378D+00 0.950D+00
 Gap=     0.263 Goal=   None    Shift=    0.000
 RMSDP=6.32D-09 MaxDP=3.15D-07 DE= 4.09D-12 OVMax= 1.40D-06

 SCF Done:  E(RHF) =  -1102.15879443     A.U. after   18 cycles
            NFock= 18  Conv=0.63D-08     -V/T= 2.0013
 KE= 1.100712379197D+03 PE=-6.649420827145D+03 EE= 2.407886220449D+03
 Leave Link  502 at Mon Aug 11 10:16:22 2025, MaxMem=  1342177280 cpu:             624.0 elap:              78.2
 (Enter /opt/bwhpc/common/chem/gaussian/g16.C.01/x86_64-Intel-avx2-source/g16/l801.exe)
 ExpMin= 1.22D-01 ExpMax= 1.17D+04 ExpMxC= 4.01D+02 IAcc=3 IRadAn=         5 AccDes= 0.00D+00
 HarFok:  IExCor=  205 AccDes= 0.00D+00 IRadAn=         5 IDoV=-2 UseB2=F ITyADJ=14
 ICtDFT= 12500011 ScaDFX=  1.000000  1.000000  1.000000  1.000000
 GSVD:  LWork=        -884 too small for GESVD, short by        3770 words or        3770 for optimal perf.
 Largest valence mixing into a core orbital is  1.07D-04
 Largest core mixing into a valence orbital is  6.10D-05
 Range of M.O.s used for correlation:    27   454
 NBasis=   454 NAE=    90 NBE=    90 NFC=    26 NFV=     0
 NROrb=    428 NOA=    64 NOB=    64 NVA=   364 NVB=   364

 **** Warning!!: The largest alpha MO coefficient is  0.21967891D+02

 Leave Link  801 at Mon Aug 11 10:16:22 2025, MaxMem=  1342177280 cpu:               1.6 elap:               0.2
 (Enter /opt/bwhpc/common/chem/gaussian/g16.C.01/x86_64-Intel-avx2-source/g16/l906.exe)
 Frozen-core derivative calculation, NFC=  26 NFV=   0.
 FulOut=F Deriv=T AODrv=F NAtomX=    44
   MMem=           0  MDisk=          64 MDiskD=          64
  W3Min=    19612800 MinDsk=    53200640 NBas6D=         480
 NBas2D=      116040    NTT=      115440    LW2=     3300000
    MDV=  1339370740 MDiskM=       38697 NBas2p=       81558
 Disk-based method using ON**2 memory for 64 occupieds at a time.
 Permanent disk used for amplitudes=  1337811930 words.
 Estimated scratch disk usage= 11151185404 words.
 IMap=   1   2   3   4   5   6   7   8   9  10  11  12  13  14  15  16  17  18  19  20
 IMap=  21  22  23  24  25  26  27  28  29  30  31  32  33  34  35  36  37  38  39  40
 IMap=  41  42  43  44  45  46  47  48  49  50  51  52  53  54  55  56  57  58  59  60
 IMap=  61  62  63  64  65  66  67  68  69  70  71  72  73  74  75  76  77  78  79  80
 IMap=  81  82  83  84  85  86  87  88  89  90
 Actual    scratch disk usage= 10004471292 words.
 JobTyp=1 Pass  1:  I=  27 to  90 NPSUse=  8 ParTrn=T ParDer=T DoDerP=T.
 Spin components of T(2) and E(2):
     alpha-alpha T2 =       0.1892838243D+00 E2=     -0.4918470248D+00
     alpha-beta  T2 =       0.9503593021D+00 E2=     -0.2614939540D+01
     beta-beta   T2 =       0.1892838243D+00 E2=     -0.4918470248D+00
 The integrals were generated   1 times.
 ANorm=    0.1526082223D+01
 E2 =    -0.3598633590D+01 EUMP2 =    -0.11057574280195D+04
 Leave Link  906 at Mon Aug 11 11:39:45 2025, MaxMem=  1342177280 cpu:           39908.0 elap:            5003.0
 (Enter /opt/bwhpc/common/chem/gaussian/g16.C.01/x86_64-Intel-avx2-source/g16/l1002.exe)
 Minotr:  Closed shell wavefunction.
          Frozen-core window.
          Direct CPHF calculation.
          Differentiating once with respect to electric field.
                with respect to dipole field.
          Electric field/nuclear overlap derivatives assumed to be zero.
          Requested convergence is 1.0D-08 RMS, and 1.0D-07 maximum.
          Secondary convergence is 1.0D-12 RMS, and 1.0D-12 maximum.
          NewPWx=F KeepS1=T KeepF1=T KeepIn=T MapXYZ=F SortEE=F KeepMc=T.
 Two-electron integral symmetry used by symmetrizing perturbed Fock matrices.
          MDV=    1342177280 using IRadAn=       4.
          Solving linear equations simultaneously, MaxMat=     384.
          There are     3 degrees of freedom in the 1st order CPHF.  IDoFFX=0 NUNeed=     3.
      3 vectors produced by pass  0 Test12= 1.09D-12 3.33D-08 XBig12= 2.68D+02 1.21D+01.
 AX will form     3 AO Fock derivatives at one time.
 FoFJK:  IHMeth= 1 ICntrl=       0 DoSepK=F KAlg= 0 I1Cent=           0 FoldK=F
 IRaf= 700000000 NMat=       3 IRICut=       1 DoRegI=T DoRafI=F ISym2E=-1 IDoP0=0 IntGTp=1.
 FoFCou: FMM=F IPFlag=           0 FMFlag=      100000 FMFlg1=           0
         NFxFlg=           0 DoJE=F BraDBF=F KetDBF=F FulRan=T
         wScrn=  0.000000 ICntrl=         0 IOpCl=  0 I1Cent=           0 NGrid=           0
         NMat0=    3 NMatS0=      3 NMatT0=    0 NMatD0=    3 NMtDS0=    0 NMtDT0=    0
 Petite list used in FoFCou.
      3 vectors produced by pass  1 Test12= 1.09D-12 3.33D-08 XBig12= 2.72D+01 1.94D+00.
      3 vectors produced by pass  2 Test12= 1.09D-12 3.33D-08 XBig12= 6.20D+00 5.83D-01.
      3 vectors produced by pass  3 Test12= 1.09D-12 3.33D-08 XBig12= 9.39D-01 2.05D-01.
      3 vectors produced by pass  4 Test12= 1.09D-12 3.33D-08 XBig12= 1.84D-01 1.04D-01.
      3 vectors produced by pass  5 Test12= 1.09D-12 3.33D-08 XBig12= 1.66D-02 1.76D-02.
      3 vectors produced by pass  6 Test12= 1.09D-12 3.33D-08 XBig12= 2.60D-03 8.24D-03.
      3 vectors produced by pass  7 Test12= 1.09D-12 3.33D-08 XBig12= 3.46D-04 3.33D-03.
      3 vectors produced by pass  8 Test12= 1.09D-12 3.33D-08 XBig12= 5.19D-05 1.01D-03.
      3 vectors produced by pass  9 Test12= 1.09D-12 3.33D-08 XBig12= 7.71D-06 4.47D-04.
      3 vectors produced by pass 10 Test12= 1.09D-12 3.33D-08 XBig12= 9.68D-07 1.75D-04.
      3 vectors produced by pass 11 Test12= 1.09D-12 3.33D-08 XBig12= 1.15D-07 4.00D-05.
      3 vectors produced by pass 12 Test12= 1.09D-12 3.33D-08 XBig12= 9.41D-09 1.96D-05.
      3 vectors produced by pass 13 Test12= 1.09D-12 3.33D-08 XBig12= 8.40D-10 6.19D-06.
      3 vectors produced by pass 14 Test12= 1.09D-12 3.33D-08 XBig12= 1.10D-10 1.89D-06.
      3 vectors produced by pass 15 Test12= 1.09D-12 3.33D-08 XBig12= 9.11D-12 6.60D-07.
      3 vectors produced by pass 16 Test12= 1.09D-12 3.33D-08 XBig12= 8.49D-13 1.34D-07.
      2 vectors produced by pass 17 Test12= 1.09D-12 3.33D-08 XBig12= 9.70D-14 4.59D-08.
 InvSVY:  IOpt=1 It=  1 EMax= 7.09D-15
 Solved reduced A of dimension    53 with     3 vectors.
 FullF1:  Do perturbations      1 to       3.
 Saving first derivative matrices.
 End of Minotr F.D. properties file   721 does not exist.
 End of Minotr F.D. properties file   722 does not exist.
 End of Minotr F.D. properties file   788 does not exist.
 Leave Link 1002 at Mon Aug 11 11:44:45 2025, MaxMem=  1342177280 cpu:            2391.1 elap:             300.1
 (Enter /opt/bwhpc/common/chem/gaussian/g16.C.01/x86_64-Intel-avx2-source/g16/l811.exe)
 MDV=  1342177280.
 Form MO integral derivatives with frozen-active canonical formalism.
 MOERI=1 MOERIx=0 NAtoms=    44 NAtomX=    44.
 Discarding MO integrals.
 MO basis two electron integral derivatives will not be stored on disk.
 IAlg= 3 DoFC=T DoPWx=T Debug=F.
 Frozen-core window:  NFC=  26 NFV=   0.
 Reordered first order wavefunction length =   2146435200
 In DefCFB: NBatch=  1 ICI= 90 ICA=364 LFMax= 73
            Large arrays: LIAPS=  7139059200 LIARS=   235872000 words.
 In StABat: MaxSiz= 15 MinSiz= 15 NAtomB= 32
 DoIAMN: NPSUse=  8.
 Leave Link  811 at Mon Aug 11 12:23:25 2025, MaxMem=  1342177280 cpu:           18485.3 elap:            2319.2
 (Enter /opt/bwhpc/common/chem/gaussian/g16.C.01/x86_64-Intel-avx2-source/g16/l804.exe)
 Frozen-core window:  NFC=  26 NFV=   0.
 Closed-shell transformation, MDV=  1342177280 ITran=4 ISComp=1.
 Semi-Direct transformation.
 ModeAB=           4 MOrb=            90 LenV=    1337082577
 LASXX=   3641359905 LTotXX=  3641359905 LenRXX=  7313776380
 LTotAB=  3672416475 MaxLAS=  3018695940 LenRXY=           0
 NonZer= 10955136285 LenScr= 21996197888 LnRSAI=  3018695940
 LnScr1=  6061069312 LExtra=           0 Total=  38389739520
 MaxDsk=          -1 SrtSym=           T ITran=            4
 DoSDTr:  NPSUse=  8
 JobTyp=0 Pass  1:  I=   1 to  90.
 Complete sort for first half transformation.
 First half transformation complete.
 Begin second half transformation for I=  10.
 Begin second half transformation for I=  20.
 Begin second half transformation for I=  30.
 Begin second half transformation for I=  40.
 Begin second half transformation for I=  50.
 Begin second half transformation for I=  60.
 Begin second half transformation for I=  70.
 Begin second half transformation for I=  80.
 Begin second half transformation for I=  90.
 Complete sort for second half transformation.
 Second half transformation complete.
 SymMOI:  orbitals are not symmetric.
 Spin components of T(2) and E(2):
     alpha-alpha T2 =       0.1892838243D+00 E2=     -0.4918470248D+00
     alpha-beta  T2 =       0.9503593021D+00 E2=     -0.2614939540D+01
     beta-beta   T2 =       0.1892838243D+00 E2=     -0.4918470248D+00
 ANorm=    0.2158206177D+01
 E2 =    -0.3598633590D+01 EUMP2 =    -0.11057574280195D+04
 Leave Link  804 at Mon Aug 11 12:53:46 2025, MaxMem=  1342177280 cpu:           14523.7 elap:            1821.2
 (Enter /opt/bwhpc/common/chem/gaussian/g16.C.01/x86_64-Intel-avx2-source/g16/l1002.exe)
 Minotr:  Closed shell wavefunction.
          Computing MP2/KS-MP2 derivatives.
          Using Z-Vector for PSCF gradient.
          Skipping F1 and S1 gradient terms here.
          Frozen-core window.
          Using MO integrals in the linear equations.
          Forming densities via direct SCF.
          Differentiating once with respect to electric field.
                with respect to dipole field.
          Electric field/nuclear overlap derivatives assumed to be zero.
          Requested convergence is 1.0D-10 RMS, and 1.0D-09 maximum.
          NewPWx=F KeepS1=T KeepF1=T KeepIn=T MapXYZ=F SortEE=F KeepMc=T.
          MDV=    1342177280 using IRadAn=       5.
          Solving linear equations separately, MaxMat=       0.
          There are     1 degrees of freedom in the 1st order CPHF.  IDoFFX=0 NUNeed=     1.
 FoFJK:  IHMeth= 1 ICntrl=       0 DoSepK=F KAlg= 0 I1Cent=           0 FoldK=F
 IRaf=         0 NMat=       1 IRICut=       1 DoRegI=T DoRafI=F ISym2E= 0 IDoP0=0 IntGTp=1.
 FoFCou: FMM=F IPFlag=           0 FMFlag=      100000 FMFlg1=           0
         NFxFlg=           0 DoJE=F BraDBF=F KetDBF=F FulRan=T
         wScrn=  0.000000 ICntrl=         0 IOpCl=  0 I1Cent=           0 NGrid=           0
         NMat0=    1 NMatS0=      1 NMatT0=    0 NMatD0=    1 NMtDS0=    0 NMtDT0=    0
 Symmetry not used in FoFCou.
 LinEq1:  Iter=  0 NonCon=     1 RMS=3.02D-03 Max=1.04D-01 NDo=     1
 LinEq1:  Iter=  1 NonCon=     1 RMS=7.71D-04 Max=3.05D-02 NDo=     1
 LinEq1:  Iter=  2 NonCon=     1 RMS=4.19D-04 Max=1.65D-02 NDo=     1
 LinEq1:  Iter=  3 NonCon=     1 RMS=1.80D-04 Max=9.53D-03 NDo=     1
 LinEq1:  Iter=  4 NonCon=     1 RMS=7.00D-05 Max=5.07D-03 NDo=     1
 LinEq1:  Iter=  5 NonCon=     1 RMS=2.66D-05 Max=1.14D-03 NDo=     1
 LinEq1:  Iter=  6 NonCon=     1 RMS=1.27D-05 Max=6.84D-04 NDo=     1
 LinEq1:  Iter=  7 NonCon=     1 RMS=4.33D-06 Max=2.27D-04 NDo=     1
 LinEq1:  Iter=  8 NonCon=     1 RMS=2.02D-06 Max=9.61D-05 NDo=     1
 LinEq1:  Iter=  9 NonCon=     1 RMS=7.57D-07 Max=2.99D-05 NDo=     1
 LinEq1:  Iter= 10 NonCon=     1 RMS=2.76D-07 Max=9.43D-06 NDo=     1
 LinEq1:  Iter= 11 NonCon=     1 RMS=1.18D-07 Max=5.41D-06 NDo=     1
 LinEq1:  Iter= 12 NonCon=     1 RMS=4.55D-08 Max=2.03D-06 NDo=     1
 LinEq1:  Iter= 13 NonCon=     1 RMS=2.16D-08 Max=5.67D-07 NDo=     1
 LinEq1:  Iter= 14 NonCon=     1 RMS=6.57D-09 Max=1.92D-07 NDo=     1
 LinEq1:  Iter= 15 NonCon=     1 RMS=2.76D-09 Max=1.04D-07 NDo=     1
 LinEq1:  Iter= 16 NonCon=     1 RMS=9.98D-10 Max=2.19D-08 NDo=     1
 LinEq1:  Iter= 17 NonCon=     1 RMS=4.82D-10 Max=2.18D-08 NDo=     1
 LinEq1:  Iter= 18 NonCon=     1 RMS=1.83D-10 Max=7.18D-09 NDo=     1
 LinEq1:  Iter= 19 NonCon=     1 RMS=7.46D-11 Max=2.75D-09 NDo=     1
 LinEq1:  Iter= 20 NonCon=     1 RMS=3.06D-11 Max=1.28D-09 NDo=     1
 LinEq1:  Iter= 21 NonCon=     0 RMS=1.10D-11 Max=4.70D-10 NDo=     1
 Linear equations converged to 1.000D-10 1.000D-09 after    21 iterations.
 End of Minotr F.D. properties file   721 does not exist.
 End of Minotr F.D. properties file   722 does not exist.
 End of Minotr F.D. properties file   788 does not exist.
 Leave Link 1002 at Mon Aug 11 12:57:53 2025, MaxMem=  1342177280 cpu:            1938.9 elap:             245.9
 (Enter /opt/bwhpc/common/chem/gaussian/g16.C.01/x86_64-Intel-avx2-source/g16/l1112.exe)
 MP22nd: MDV=    1342177280
 This link is doing NAtomX=    44 total of     3 degrees of freedom.
 Using gON3 I/O method in MakUI.
 Frozen-core window:  NFC=  26 NFV=   0.
 Using Ix for Sx.
 Use MO integrals over full window.
 Using OV2 memory method for fx*t*t/D, MaxI=    13 DoOO2=F NP=   8.
 Would need an additional 12039978432 words for in-memory AO integral storage.
 DD1Dir will call FoFJK  16 times, MxPair=       512
 NAB=  4095 NAA=     0 NBB=     0 NumPrc=  8.
 DD1Dir:  Pass   1 NRAB=   256 NRAA=     0 NRBB=     0 NR=   512.
 FoFJK:  IHMeth= 1 ICntrl=     200 DoSepK=F KAlg= 0 I1Cent=           0 FoldK=F
 IRaf= 990000000 NMat=     512 IRICut=     640 DoRegI=T DoRafI=T ISym2E= 2 IDoP0=3 IntGTp=3.
 FoFCou: FMM=F IPFlag=           0 FMFlag=           0 FMFlg1=           0
         NFxFlg=           0 DoJE=F BraDBF=F KetDBF=F FulRan=T
         wScrn=  0.000000 ICntrl=       200 IOpCl=  0 I1Cent=           0 NGrid=           0
         NMat0=  512 NMatS0=      0 NMatT0=  256 NMatD0=  512 NMtDS0=    0 NMtDT0=    0
 Integrals replicated using symmetry in FoFCou.
 Raff turned off since only  19.94% of shell-pairs survive, threshold=   0.20.
 DD1Dir:  Pass   2 NRAB=   256 NRAA=     0 NRBB=     0 NR=   512.
 DD1Dir:  Pass   3 NRAB=   256 NRAA=     0 NRBB=     0 NR=   512.
 DD1Dir:  Pass   4 NRAB=   256 NRAA=     0 NRBB=     0 NR=   512.
 DD1Dir:  Pass   5 NRAB=   256 NRAA=     0 NRBB=     0 NR=   512.
 DD1Dir:  Pass   6 NRAB=   256 NRAA=     0 NRBB=     0 NR=   512.
 DD1Dir:  Pass   7 NRAB=   256 NRAA=     0 NRBB=     0 NR=   512.
 DD1Dir:  Pass   8 NRAB=   256 NRAA=     0 NRBB=     0 NR=   512.
 DD1Dir:  Pass   9 NRAB=   256 NRAA=     0 NRBB=     0 NR=   512.
 DD1Dir:  Pass  10 NRAB=   256 NRAA=     0 NRBB=     0 NR=   512.
 DD1Dir:  Pass  11 NRAB=   256 NRAA=     0 NRBB=     0 NR=   512.
 DD1Dir:  Pass  12 NRAB=   256 NRAA=     0 NRBB=     0 NR=   512.
 DD1Dir:  Pass  13 NRAB=   256 NRAA=     0 NRBB=     0 NR=   512.
 DD1Dir:  Pass  14 NRAB=   256 NRAA=     0 NRBB=     0 NR=   512.
 DD1Dir:  Pass  15 NRAB=   256 NRAA=     0 NRBB=     0 NR=   512.
 DD1Dir:  Pass  16 NRAB=   255 NRAA=     0 NRBB=     0 NR=   510.
 Symmetry is being used.
 Discarding MO integrals.
 Leave Link 1112 at Mon Aug 11 14:17:59 2025, MaxMem=  1342177280 cpu:           38330.6 elap:            4805.8
 (Enter /opt/bwhpc/common/chem/gaussian/g16.C.01/x86_64-Intel-avx2-source/g16/l601.exe)
 Copying SCF densities to generalized density rwf, IOpCl= 0 IROHF=0.

 **********************************************************************

            Population analysis using the MP2 Density.

 **********************************************************************

 Orbital symmetries:
       Occupied  (A) (A) (A) (A) (A) (A) (A) (A) (A) (A) (A) (A)
                 (A) (A) (A) (A) (A) (A) (A) (A) (A) (A) (A) (A)
                 (A) (A) (A) (A) (A) (A) (A) (A) (A) (A) (A) (A)
                 (A) (A) (A) (A) (A) (A) (A) (A) (A) (A) (A) (A)
                 (A) (A) (A) (A) (A) (A) (A) (A) (A) (A) (A) (A)
                 (A) (A) (A) (A) (A) (A) (A) (A) (A) (A) (A) (A)
                 (A) (A) (A) (A) (A) (A) (A) (A) (A) (A) (A) (A)
                 (A) (A) (A) (A) (A) (A)
       Virtual   (A) (A) (A) (A) (A) (A) (A) (A) (A) (A) (A) (A)
                 (A) (A) (A) (A) (A) (A) (A) (A) (A) (A) (A) (A)
                 (A) (A) (A) (A) (A) (A) (A) (A) (A) (A) (A) (A)
                 (A) (A) (A) (A) (A) (A) (A) (A) (A) (A) (A) (A)
                 (A) (A) (A) (A) (A) (A) (A) (A) (A) (A) (A) (A)
                 (A) (A) (A) (A) (A) (A) (A) (A) (A) (A) (A) (A)
                 (A) (A) (A) (A) (A) (A) (A) (A) (A) (A) (A) (A)
                 (A) (A) (A) (A) (A) (A) (A) (A) (A) (A) (A) (A)
                 (A) (A) (A) (A) (A) (A) (A) (A) (A) (A) (A) (A)
                 (A) (A) (A) (A) (A) (A) (A) (A) (A) (A) (A) (A)
                 (A) (A) (A) (A) (A) (A) (A) (A) (A) (A) (A) (A)
                 (A) (A) (A) (A) (A) (A) (A) (A) (A) (A) (A) (A)
                 (A) (A) (A) (A) (A) (A) (A) (A) (A) (A) (A) (A)
                 (A) (A) (A) (A) (A) (A) (A) (A) (A) (A) (A) (A)
                 (A) (A) (A) (A) (A) (A) (A) (A) (A) (A) (A) (A)
                 (A) (A) (A) (A) (A) (A) (A) (A) (A) (A) (A) (A)
                 (A) (A) (A) (A) (A) (A) (A) (A) (A) (A) (A) (A)
                 (A) (A) (A) (A) (A) (A) (A) (A) (A) (A) (A) (A)
                 (A) (A) (A) (A) (A) (A) (A) (A) (A) (A) (A) (A)
                 (A) (A) (A) (A) (A) (A) (A) (A) (A) (A) (A) (A)
                 (A) (A) (A) (A) (A) (A) (A) (A) (A) (A) (A) (A)
                 (A) (A) (A) (A) (A) (A) (A) (A) (A) (A) (A) (A)
                 (A) (A) (A) (A) (A) (A) (A) (A) (A) (A) (A) (A)
                 (A) (A) (A) (A) (A) (A) (A) (A) (A) (A) (A) (A)
                 (A) (A) (A) (A) (A) (A) (A) (A) (A) (A) (A) (A)
                 (A) (A) (A) (A) (A) (A) (A) (A) (A) (A) (A) (A)
                 (A) (A) (A) (A) (A) (A) (A) (A) (A) (A) (A) (A)
                 (A) (A) (A) (A) (A) (A) (A) (A) (A) (A) (A) (A)
                 (A) (A) (A) (A) (A) (A) (A) (A) (A) (A) (A) (A)
                 (A) (A) (A) (A) (A) (A) (A) (A) (A) (A) (A) (A)
                 (A) (A) (A) (A)
 The electronic state is 1-A.
 Alpha  occ. eigenvalues --  -20.57939 -20.57609 -15.83047 -15.59706 -11.30099
 Alpha  occ. eigenvalues --  -11.29033 -11.28872 -11.28801 -11.28245 -11.27684
 Alpha  occ. eigenvalues --  -11.27091 -11.26878 -11.26614 -11.26345 -11.26283
 Alpha  occ. eigenvalues --  -11.26189 -11.25929 -11.25871 -11.25698 -11.25677
 Alpha  occ. eigenvalues --  -11.25184 -11.25148 -11.25067 -11.24990 -11.24641
 Alpha  occ. eigenvalues --  -11.23024  -1.58623  -1.37827  -1.27825  -1.20905
 Alpha  occ. eigenvalues --   -1.16634  -1.13587  -1.12599  -1.09276  -1.06720
 Alpha  occ. eigenvalues --   -1.04032  -1.02671  -1.00447  -0.99089  -0.98802
 Alpha  occ. eigenvalues --   -0.94260  -0.91179  -0.87044  -0.85827  -0.85434
 Alpha  occ. eigenvalues --   -0.83057  -0.79438  -0.78289  -0.75229  -0.73852
 Alpha  occ. eigenvalues --   -0.72160  -0.71753  -0.70463  -0.70101  -0.69687
 Alpha  occ. eigenvalues --   -0.68713  -0.67484  -0.65988  -0.65321  -0.63702
 Alpha  occ. eigenvalues --   -0.62778  -0.61871  -0.60753  -0.59502  -0.58167
 Alpha  occ. eigenvalues --   -0.57170  -0.57061  -0.56899  -0.56547  -0.56376
 Alpha  occ. eigenvalues --   -0.55884  -0.54943  -0.53927  -0.53594  -0.51569
 Alpha  occ. eigenvalues --   -0.50785  -0.48643  -0.47699  -0.47445  -0.47011
 Alpha  occ. eigenvalues --   -0.46653  -0.46613  -0.43675  -0.43004  -0.40056
 Alpha  occ. eigenvalues --   -0.37166  -0.35121  -0.31584  -0.30248  -0.24375
 Alpha virt. eigenvalues --    0.01972   0.07429   0.08720   0.12166   0.13992
 Alpha virt. eigenvalues --    0.15917   0.17455   0.17680   0.18302   0.18671
 Alpha virt. eigenvalues --    0.19362   0.20231   0.20628   0.21351   0.22504
 Alpha virt. eigenvalues --    0.23116   0.23854   0.24960   0.25500   0.25768
 Alpha virt. eigenvalues --    0.26538   0.27456   0.28097   0.28966   0.30077
 Alpha virt. eigenvalues --    0.32100   0.32996   0.34446   0.34840   0.35571
 Alpha virt. eigenvalues --    0.38496   0.38848   0.40287   0.40581   0.42295
 Alpha virt. eigenvalues --    0.43426   0.44337   0.45232   0.46056   0.46543
 Alpha virt. eigenvalues --    0.46977   0.47670   0.48744   0.50222   0.50665
 Alpha virt. eigenvalues --    0.51789   0.54101   0.56248   0.57434   0.57946
 Alpha virt. eigenvalues --    0.59528   0.60420   0.61178   0.62486   0.63257
 Alpha virt. eigenvalues --    0.64028   0.64181   0.64743   0.65440   0.65590
 Alpha virt. eigenvalues --    0.66179   0.66250   0.67397   0.67647   0.67732
 Alpha virt. eigenvalues --    0.68141   0.68920   0.69505   0.70268   0.70678
 Alpha virt. eigenvalues --    0.70968   0.71323   0.71889   0.72884   0.73353
 Alpha virt. eigenvalues --    0.73575   0.73845   0.74172   0.74512   0.75012
 Alpha virt. eigenvalues --    0.75336   0.75786   0.76277   0.76844   0.77384
 Alpha virt. eigenvalues --    0.78078   0.79127   0.79392   0.80064   0.81345
 Alpha virt. eigenvalues --    0.81929   0.82981   0.83144   0.83431   0.84051
 Alpha virt. eigenvalues --    0.84791   0.85879   0.86077   0.86446   0.87025
 Alpha virt. eigenvalues --    0.87707   0.88683   0.88821   0.89701   0.89994
 Alpha virt. eigenvalues --    0.90424   0.90927   0.91256   0.91552   0.92181
 Alpha virt. eigenvalues --    0.92798   0.93797   0.94892   0.95147   0.96380
 Alpha virt. eigenvalues --    0.97061   0.98888   0.99871   1.01058   1.01417
 Alpha virt. eigenvalues --    1.01631   1.02868   1.04610   1.05456   1.06523
 Alpha virt. eigenvalues --    1.07092   1.07789   1.08085   1.09209   1.09877
 Alpha virt. eigenvalues --    1.10777   1.11092   1.11892   1.11955   1.12902
 Alpha virt. eigenvalues --    1.13804   1.14510   1.15125   1.15888   1.16089
 Alpha virt. eigenvalues --    1.16458   1.16761   1.17224   1.18357   1.18642
 Alpha virt. eigenvalues --    1.19136   1.19618   1.20029   1.20279   1.21614
 Alpha virt. eigenvalues --    1.22115   1.23630   1.23778   1.24349   1.24843
 Alpha virt. eigenvalues --    1.25560   1.27434   1.27728   1.28131   1.29131
 Alpha virt. eigenvalues --    1.29280   1.29495   1.30368   1.30821   1.31597
 Alpha virt. eigenvalues --    1.32138   1.33367   1.33932   1.36064   1.37492
 Alpha virt. eigenvalues --    1.38993   1.39341   1.39473   1.39855   1.41920
 Alpha virt. eigenvalues --    1.44617   1.46821   1.47395   1.49714   1.51185
 Alpha virt. eigenvalues --    1.55194   1.56851   1.57494   1.58028   1.58852
 Alpha virt. eigenvalues --    1.59078   1.59397   1.61121   1.61241   1.61688
 Alpha virt. eigenvalues --    1.62248   1.63135   1.64211   1.64576   1.65555
 Alpha virt. eigenvalues --    1.65780   1.66628   1.67541   1.67805   1.68193
 Alpha virt. eigenvalues --    1.69531   1.70983   1.71209   1.72279   1.72935
 Alpha virt. eigenvalues --    1.73472   1.74861   1.75381   1.76401   1.77078
 Alpha virt. eigenvalues --    1.77866   1.78290   1.80418   1.82167   1.82555
 Alpha virt. eigenvalues --    1.83044   1.83127   1.83564   1.83785   1.86054
 Alpha virt. eigenvalues --    1.86129   1.86381   1.87368   1.87812   1.88527
 Alpha virt. eigenvalues --    1.88622   1.89845   1.90527   1.90973   1.91468
 Alpha virt. eigenvalues --    1.91609   1.92269   1.92831   1.93408   1.93771
 Alpha virt. eigenvalues --    1.94064   1.94991   1.95842   1.96625   1.97571
 Alpha virt. eigenvalues --    1.98059   1.99307   1.99956   2.00540   2.01152
 Alpha virt. eigenvalues --    2.01937   2.02446   2.02573   2.03889   2.05378
 Alpha virt. eigenvalues --    2.05570   2.06687   2.07097   2.07550   2.08485
 Alpha virt. eigenvalues --    2.09022   2.09183   2.09844   2.10954   2.11394
 Alpha virt. eigenvalues --    2.11921   2.12027   2.12801   2.13602   2.15144
 Alpha virt. eigenvalues --    2.15323   2.16544   2.18341   2.18931   2.20741
 Alpha virt. eigenvalues --    2.21313   2.22130   2.22627   2.24705   2.25701
 Alpha virt. eigenvalues --    2.26147   2.27397   2.27776   2.29451   2.30015
 Alpha virt. eigenvalues --    2.30487   2.31137   2.32835   2.33057   2.35237
 Alpha virt. eigenvalues --    2.35397   2.35514   2.36923   2.37800   2.38919
 Alpha virt. eigenvalues --    2.39708   2.40850   2.41159   2.41388   2.42287
 Alpha virt. eigenvalues --    2.43112   2.45744   2.46317   2.47540   2.48512
 Alpha virt. eigenvalues --    2.49759   2.51185   2.52193   2.52742   2.53876
 Alpha virt. eigenvalues --    2.55934   2.57744   2.58982   2.59807   2.61741
 Alpha virt. eigenvalues --    2.62691   2.63242   2.66371   2.67961   2.68767
 Alpha virt. eigenvalues --    2.69286   2.70603   2.71299   2.71977   2.72858
 Alpha virt. eigenvalues --    2.73621   2.77338   2.79456   2.79640   2.80835
 Alpha virt. eigenvalues --    2.81242   2.83693   2.84327   2.85148   2.87261
 Alpha virt. eigenvalues --    2.90331   2.92329   2.93289   2.95075   2.96724
 Alpha virt. eigenvalues --    2.99168   2.99424   3.00382   3.01897   3.03722
 Alpha virt. eigenvalues --    3.05041   3.07167   3.08434   3.10092   3.11576
 Alpha virt. eigenvalues --    3.13302   3.14917   3.15380   3.16546   3.19014
 Alpha virt. eigenvalues --    3.21237   3.34444   3.38046   3.38634   3.47501
 Alpha virt. eigenvalues --    3.60959   3.61897   3.63447   3.72859   3.79869
 Alpha virt. eigenvalues --    3.81755   3.87527   4.03135   4.06677
          Condensed to atoms (all electrons):
               1          2          3          4          5          6
     1  C    5.612701   0.340507   0.036373  -0.112569  -0.001877   0.000147
     2  C    0.340507   5.140226   0.354978   0.035287   0.009377  -0.000525
     3  C    0.036373   0.354978   5.072357   0.334056  -0.111028   0.008690
     4  C   -0.112569   0.035287   0.334056   5.538336   0.312334   0.038486
     5  C   -0.001877   0.009377  -0.111028   0.312334   5.083262   0.374045
     6  C    0.000147  -0.000525   0.008690   0.038486   0.374045   5.175303
     7  C   -0.000386   0.000073  -0.001436  -0.115657   0.034724   0.294943
     8  C   -0.000004   0.000001  -0.000006  -0.002694   0.015793  -0.108156
     9  C    0.000001  -0.000000   0.000001  -0.000059   0.000076   0.015673
    10  C   -0.000003   0.000001  -0.000004  -0.000099   0.000039  -0.003216
    11  C   -0.002279  -0.000018  -0.000131   0.026897  -0.004080   0.023247
    12  C    0.014068  -0.000020   0.000074  -0.004019  -0.000044   0.000089
    13  C   -0.122442   0.014543  -0.003164   0.022254   0.000091  -0.000087
    14  C    0.127825   0.010597  -0.118394  -0.037463   0.020915  -0.004067
    15  C    0.014286  -0.113030   0.012674   0.125692   0.012363  -0.122133
    16  C    0.027942  -0.003740   0.022448  -0.026997  -0.125422  -0.003492
    17  C    0.198673  -0.110556   0.012450  -0.001935  -0.000000   0.000000
    18  C    0.000000  -0.000000  -0.000000   0.000050  -0.000955  -0.029066
    19  C   -0.034708  -0.025276  -0.000574   0.000047  -0.000000  -0.000000
    20  C    0.000000  -0.000000  -0.000000   0.000002  -0.000055  -0.000659
    21  N   -0.000000   0.000000  -0.000000  -0.000000  -0.000000   0.000009
    22  C   -0.000000   0.000000  -0.000000  -0.000000  -0.000000   0.000000
    23  C    0.000000  -0.000000  -0.000000   0.000000   0.000000   0.000003
    24  N    0.002243  -0.000238  -0.000005   0.000000  -0.000000  -0.000000
    25  O   -0.000111   0.000002  -0.000000  -0.000000  -0.000000  -0.000000
    26  O    0.001324   0.000018   0.000000  -0.000000  -0.000000   0.000000
    27  H   -0.030460   0.382779  -0.042755   0.008518  -0.000299   0.000006
    28  H    0.007929  -0.040108   0.380208  -0.032557  -0.015377   0.000417
    29  H   -0.000052   0.000369  -0.015893  -0.036076   0.380117  -0.037615
    30  H    0.000001   0.000007  -0.000304   0.008376  -0.050005   0.375065
    31  H    0.000000   0.000000   0.000000  -0.000001   0.000007  -0.000210
    32  H   -0.000001   0.000000  -0.000000   0.000004   0.000000   0.000035
    33  H   -0.000373   0.000005   0.000001   0.000016   0.000000   0.000005
    34  H   -0.039215  -0.001055   0.000010  -0.000066   0.000002  -0.000000
    35  H    0.015418   0.010139  -0.000042  -0.000111  -0.000000   0.000000
    36  H   -0.000000   0.000000  -0.000000  -0.000079   0.001766   0.007562
    37  H   -0.016090   0.004128   0.000599  -0.000041  -0.000000   0.000000
    38  H   -0.000000   0.000000   0.000000  -0.000000   0.000002  -0.000024
    39  H   -0.000000   0.000000   0.000000  -0.000000   0.000000   0.000000
    40  H    0.000000  -0.000000  -0.000000   0.000000   0.000000  -0.000000
    41  H   -0.000000   0.000000  -0.000000  -0.000000  -0.000000   0.000000
    42  H   -0.000000   0.000000   0.000000  -0.000000   0.000000   0.000000
    43  H    0.000000  -0.000000   0.000000   0.000000   0.000001  -0.000110
    44  H   -0.000000   0.000000  -0.000000  -0.000000   0.000001   0.000094
               7          8          9         10         11         12
     1  C   -0.000386  -0.000004   0.000001  -0.000003  -0.002279   0.014068
     2  C    0.000073   0.000001  -0.000000   0.000001  -0.000018  -0.000020
     3  C   -0.001436  -0.000006   0.000001  -0.000004  -0.000131   0.000074
     4  C   -0.115657  -0.002694  -0.000059  -0.000099   0.026897  -0.004019
     5  C    0.034724   0.015793   0.000076   0.000039  -0.004080  -0.000044
     6  C    0.294943  -0.108156   0.015673  -0.003216   0.023247   0.000089
     7  C    5.844328   0.148009   0.016474  -0.117280  -0.043922   0.021132
     8  C    0.148009   5.516879   0.346213   0.028004  -0.110099  -0.001741
     9  C    0.016474   0.346213   5.126842   0.342659   0.035855   0.009355
    10  C   -0.117280   0.028004   0.342659   5.120139   0.337453  -0.111490
    11  C   -0.043922  -0.110099   0.035855   0.337453   5.520045   0.307485
    12  C    0.021132  -0.001741   0.009355  -0.111490   0.307485   5.096654
    13  C   -0.003876   0.000124  -0.000506   0.008842   0.037043   0.374616
    14  C    0.027788  -0.000275   0.000068  -0.001414  -0.113761   0.035485
    15  C   -0.028538   0.028539  -0.004119   0.023075  -0.031307  -0.121301
[...]
    10  C    0.000000   0.000575   0.000002  -0.000000   0.000000   0.000000
    11  C   -0.000000  -0.000047  -0.000000   0.000000  -0.000000  -0.000000
    12  C    0.000001  -0.000000  -0.000000   0.000000  -0.000000  -0.000000
    13  C   -0.000004   0.000000   0.000000  -0.000000   0.000000   0.000000
    14  C   -0.000361  -0.000000  -0.000000  -0.000000   0.000000   0.000000
    15  C    0.000031   0.000001   0.000000  -0.000000   0.000000   0.000000
    16  C    0.000000   0.000021   0.000000  -0.000000   0.000000   0.000000
    17  C   -0.027398  -0.000000  -0.000000  -0.000000   0.000000  -0.000000
    18  C   -0.000000  -0.024412   0.001006   0.000780  -0.000379   0.000198
    19  C    0.384440   0.000000   0.000000  -0.000000   0.000000   0.000000
    20  C    0.000000   0.374104  -0.007925   0.001019   0.004221   0.006069
    21  N    0.000000  -0.032042  -0.020170  -0.039602  -0.027637  -0.021412
    22  C    0.000000  -0.011109   0.388272   0.378502   0.388583  -0.007744
    23  C   -0.000000   0.006189   0.006027  -0.002673  -0.006354   0.385819
    24  N   -0.024581  -0.000000   0.000000   0.000000   0.000000   0.000000
    25  O    0.011659   0.000000   0.000000   0.000000   0.000000   0.000000
    26  O    0.004256  -0.000000   0.000000   0.000000   0.000000   0.000000
    27  H   -0.003013   0.000000   0.000000  -0.000000  -0.000000   0.000000
    28  H    0.000058  -0.000000  -0.000000   0.000000  -0.000000  -0.000000
    29  H   -0.000000   0.000000   0.000000  -0.000000   0.000000   0.000000
    30  H   -0.000000  -0.000041  -0.000001   0.000005  -0.000000  -0.000004
    31  H    0.000000  -0.000483   0.000052  -0.000015   0.000003   0.000001
    32  H    0.000000   0.000054  -0.000000   0.000000  -0.000000   0.000000
    33  H    0.000000   0.000000   0.000000  -0.000000   0.000000  -0.000000
    34  H   -0.000004  -0.000000   0.000000  -0.000000   0.000000  -0.000000
    35  H    0.006043   0.000000  -0.000000   0.000000  -0.000000   0.000000
    36  H    0.000000   0.008137   0.000021  -0.000052   0.000007   0.000004
    37  H    0.618233   0.000000   0.000000  -0.000000   0.000000   0.000000
    38  H    0.000000   0.659439   0.003581  -0.000143   0.000420  -0.000289
    39  H    0.000000   0.003581   0.625740  -0.032801  -0.018216   0.000555
    40  H   -0.000000  -0.000143  -0.032801   0.687322  -0.042892  -0.002298
    41  H    0.000000   0.000420  -0.018216  -0.042892   0.648384   0.004912
    42  H    0.000000  -0.000289   0.000555  -0.002298   0.004912   0.635254
    43  H   -0.000000  -0.000288  -0.000616   0.007763  -0.002160  -0.033872
    44  H   -0.000000  -0.000115  -0.000174  -0.001012   0.001174  -0.018328
              43         44
     1  C    0.000000   0.000000
     2  C   -0.000000   0.000000
     3  C    0.000000  -0.000000
     4  C    0.000000  -0.000000
     5  C    0.000001   0.000001
     6  C   -0.000110   0.000095
     7  C    0.000051  -0.000157
     8  C    0.000018   0.000694
     9  C   -0.000040   0.000045
    10  C   -0.000001   0.000002
    11  C    0.000000  -0.000000
    12  C    0.000000  -0.000000
    13  C   -0.000000  -0.000000
    14  C   -0.000000   0.000000
    15  C   -0.000000   0.000000
    16  C    0.000001  -0.000002
    17  C   -0.000000   0.000000
    18  C    0.005600   0.009322
    19  C   -0.000000  -0.000000
    20  C   -0.000880  -0.011787
    21  N   -0.040241  -0.023342
    22  C   -0.000932   0.005946
    23  C    0.376175   0.382552
    24  N    0.000000   0.000000
    25  O    0.000000   0.000000
    26  O    0.000000   0.000000
    27  H   -0.000000   0.000000
    28  H    0.000000  -0.000000
    29  H   -0.000001   0.000000
    30  H    0.000573  -0.000305
    31  H   -0.000008   0.000032
    32  H    0.000000  -0.000000
    33  H   -0.000000   0.000000
    34  H   -0.000000   0.000000
    35  H    0.000000  -0.000000
    36  H   -0.001526   0.000483
    37  H   -0.000000  -0.000000
    38  H   -0.000288  -0.000115
    39  H   -0.000616  -0.000174
    40  H    0.007763  -0.001012
    41  H   -0.002160   0.001174
    42  H   -0.033872  -0.018328
    43  H    0.693379  -0.045037
    44  H   -0.045037   0.636877
 Mulliken charges:
               1
     1  C   -0.038865
     2  C   -0.008463
     3  C    0.058835
     4  C   -0.079964
     5  C    0.064226
     6  C   -0.004540
     7  C   -0.039178
     8  C   -0.039986
     9  C    0.009539
    10  C    0.028260
    11  C   -0.055305
    12  C    0.048350
    13  C   -0.000114
    14  C   -0.039509
    15  C    0.011863
    16  C   -0.007789
    17  C    0.003924
    18  C   -0.130319
    19  C    0.106626
    20  C    0.161710
    21  N   -0.343689
    22  C    0.040361
    23  C    0.041392
    24  N    0.183537
    25  O   -0.230478
    26  O   -0.232621
    27  H    0.009309
    28  H    0.007196
    29  H    0.002807
    30  H    0.006131
    31  H    0.005940
    32  H    0.000752
    33  H    0.002846
    34  H    0.019154
    35  H    0.047946
    36  H    0.012673
    37  H    0.042041
    38  H    0.028327
    39  H    0.054699
    40  H    0.046104
    41  H    0.049928
    42  H    0.051159
    43  H    0.042149
    44  H    0.063036
 Sum of Mulliken charges =  -0.00000
 Mulliken charges with hydrogens summed into heavy atoms:
               1
     1  C   -0.038865
     2  C    0.000846
     3  C    0.066031
     4  C   -0.079964
     5  C    0.067033
     6  C    0.001591
     7  C   -0.039178
     8  C   -0.039986
     9  C    0.015480
    10  C    0.029011
    11  C   -0.055305
    12  C    0.051196
    13  C    0.019041
    14  C   -0.039509
    15  C    0.011863
    16  C   -0.007789
    17  C    0.051871
    18  C   -0.117646
    19  C    0.148667
    20  C    0.190036
    21  N   -0.343689
    22  C    0.191091
    23  C    0.197735
    24  N    0.183537
    25  O   -0.230478
    26  O   -0.232621
 Electronic spatial extent (au):  <R**2>=          14892.5620
 Charge=             -0.0000 electrons
 Dipole moment (field-independent basis, Debye):
    X=             -9.3837    Y=              1.7752    Z=              0.4038  Tot=              9.5587
 Quadrupole moment (field-independent basis, Debye-Ang):
   XX=           -154.2183   YY=           -138.7973   ZZ=           -158.5998
   XY=              8.0041   XZ=             -3.1279   YZ=             -1.2045
 Traceless Quadrupole moment (field-independent basis, Debye-Ang):
   XX=             -3.6799   YY=             11.7412   ZZ=             -8.0613
   XY=              8.0041   XZ=             -3.1279   YZ=             -1.2045
 Octapole moment (field-independent basis, Debye-Ang**2):
  XXX=           -723.3220  YYY=              4.9564  ZZZ=              3.3358  XYY=             -7.1336
  XXY=             66.1048  XXZ=             18.2288  XZZ=             21.8359  YZZ=             -1.9378
  YYZ=              0.7367  XYZ=             12.5432
 Hexadecapole moment (field-independent basis, Debye-Ang**3):
 XXXX=         -18483.3800 YYYY=          -1984.2387 ZZZZ=           -241.8417 XXXY=            270.3711
 XXXZ=           -199.7766 YYYX=             33.1495 YYYZ=              6.3954 ZZZX=             -1.0487
 ZZZY=             -5.7838 XXYY=          -3199.1084 XXZZ=          -2937.2388 YYZZ=           -431.0301
 XXYZ=            -73.5237 YYXZ=              2.4299 ZZXY=            -29.8060
 N-N= 2.038663433068D+03 E-N=-6.652427564392D+03  KE= 1.104356394054D+03
  Exact polarizability:     631.593      18.984     280.544      -1.864       1.429     100.892
 Approx polarizability:     429.568      33.626     294.470       1.870       2.373     121.850
 No NMR shielding tensors so no spin-rotation constants.
 Leave Link  601 at Tue Aug 12 14:55:39 2025, MaxMem=  1342177280 cpu:               3.0 elap:               0.4
 (Enter /opt/bwhpc/common/chem/gaussian/g16.C.01/x86_64-Intel-avx2-source/g16/l106.exe)
 NDeriv=      3 NFrqRd=  0 NDerD0=      0 MskFDP=       0 MskDFD=       0 MskDF0=       0
 Re-enter D2Numr:  atom      0 IXYZ=3 step-down number 1
 Max difference between analytic and numerical Dipole moment IMax=       1 EMax= 3.95D-04
 Max difference between off-diagonal Polarizability IMax=       2 JMax=       3 EMax= 7.00D-03
 Max difference between analytic and numerical Polarizability IMax=       1 EMax= 8.93D-02
 Max difference between off-diagonal HyperPolarizability IMax=       1 JMax=       1 KMax=       3 EMax= 1.36D+00
 Final packed hyperpolarizability:
 K=  1 block:
                1 
      1  0.199928D+05
 K=  2 block:
                1             2 
      1 -0.164087D+03
      2  0.411586D+03  0.175627D+03
 K=  3 block:
                1             2             3 
      1  0.804988D+02
      2  0.277690D+02  0.253588D+02
      3 -0.135207D+03  0.329631D+02  0.343025D+02
 FinFTb:  IFil= 1 IFilD=  777 LTop=  1 LFil=      6389 LTop1=  0 IMask=  1
 Leave Link  106 at Tue Aug 12 14:55:39 2025, MaxMem=  1342177280 cpu:               1.4 elap:               0.2
 (Enter /opt/bwhpc/common/chem/gaussian/g16.C.01/x86_64-Intel-avx2-source/g16/l9999.exe)

 ----------------------------------------------------------------------

 Electric dipole moment (input orientation):
 (Debye = 10**-18 statcoulomb cm , SI units = C m)
                  (au)            (Debye)         (10**-30 SI)
   Tot        0.375870D+01      0.955365D+01      0.318676D+02
   x          0.252667D+01      0.642215D+01      0.214220D+02
   y         -0.278225D+01     -0.707178D+01     -0.235889D+02
   z         -0.531502D-01     -0.135094D+00     -0.450626D+00

 Dipole polarizability, Alpha (input orientation).
 (esu units = cm**3 , SI units = C**2 m**2 J**-1)
 Alpha(0;0):
               (au)            (10**-24 esu)      (10**-40 SI)
   iso        0.337692D+03      0.500407D+02      0.556778D+02
   aniso      0.468711D+03      0.694558D+02      0.772800D+02
   xx         0.359827D+03      0.533209D+02      0.593275D+02
   yx        -0.148064D+03     -0.219409D+02     -0.244125D+02
   yy         0.551989D+03      0.817963D+02      0.910107D+02
   zx         0.951861D+00      0.141051D+00      0.156941D+00
   zy        -0.122161D+02     -0.181024D+01     -0.201416D+01
   zz         0.101259D+03      0.150051D+02      0.166954D+02

 First dipole hyperpolarizability, Beta (input orientation).
 ||, _|_  parallel and perpendicular components, (z) with respect to z axis,
 vector components x,y,z.  Values do not include the 1/n! factor of 1/2.
 (esu units = statvolt**-1 cm**4 , SI units = C**3 m**3 J**-2)
 Beta(0;0,0):
               (au)            (10**-30 esu)      (10**-50 SI)
   || (z)    -0.369369D+03     -0.319106D+01     -0.118433D+01
   _|_(z)    -0.123123D+03     -0.106369D+01     -0.394777D+00
   x         -0.317275D+05     -0.274101D+03     -0.101730D+03
   y          0.518432D+05      0.447885D+03      0.166228D+03
   z         -0.184685D+04     -0.159553D+02     -0.592166D+01
   ||         0.121618D+05      0.105069D+03      0.389953D+02
   xxx       -0.334585D+04     -0.289055D+02     -0.107280D+02
   xxy        0.489782D+04      0.423134D+02      0.157042D+02
   yxy       -0.732261D+04     -0.632616D+02     -0.234789D+02
   yyy        0.124670D+05      0.107705D+03      0.399737D+02
   xxz       -0.147544D+03     -0.127467D+01     -0.473080D+00
   yxz        0.213801D+03      0.184708D+01      0.685524D+00
   yyz       -0.440760D+03     -0.380783D+01     -0.141324D+01
   zxz        0.926283D+02      0.800237D+00      0.297000D+00
   zyz       -0.837490D+02     -0.723526D+00     -0.268530D+00
   zzz       -0.273108D+02     -0.235944D+00     -0.875682D-01

 ----------------------------------------------------------------------

 Dipole orientation:
     6          1.86708155          1.24161119         -7.44386634
     6          3.84781958          2.88830951         -6.73526606
     6          4.35336030          3.44788221         -4.23508476
     6          2.88677592          2.38487388         -2.27619279
     6          3.38876388          2.91653318          0.32581481
     6          1.95525286          1.88296725          2.21072523
     6         -0.13126893          0.23174018          1.68732006
     6         -1.65935621         -0.83841825          3.65351792
     6         -3.63816530         -2.48366124          2.93079099
     6         -4.11043536         -3.08975200          0.42782414
     6         -2.65192344         -2.04854355         -1.53992621
     6         -3.12974590         -2.60662173         -4.13929553
     6         -1.71155425         -1.57221713         -6.03419352
     6          0.33860614          0.12726486         -5.50587958
     6          0.85639123          0.71537081         -2.90114798
     6         -0.64187990         -0.36155459         -0.91171777
     6          1.39853617          0.69244331        -10.09536236
     6         -1.21478604         -0.23813173          6.30926480
     6          2.65944470          1.60104944        -12.11463341
     6         -1.98844527         -1.70430380          8.28417336
     7         -1.80361927         -1.15405198         10.80469395
     6         -1.97254852         -3.17176255         12.65146007
     6         -0.66904179          1.19724953         11.61667316
     7          1.93566304          0.84816332        -14.65201620
     8          3.18433525          1.77268278        -16.37244686
     8          0.17289874         -0.62428747        -14.94896962
     1          5.02084805          3.74416252         -8.20087935
     1          5.90435988          4.72395725         -3.75177979
     1          4.96709677          4.16736962          0.78839267
     1          2.43562393          2.31320040          4.16740603
     1         -4.88438439         -3.25359770          4.38440666
     1         -5.67072145         -4.36055266         -0.04470559
     1         -4.67694867         -3.89714968         -4.60080500
     1         -2.16200053         -2.06368497         -7.98212518
     1         -0.13475317         -0.59580187        -10.58678728
     1         -0.18213964          1.49486000          6.72533933
     1          4.24799940          2.90538133        -12.13981485
     1         -2.86758878         -3.53959551          7.91153906
     1         -3.11803629         -4.73107407         11.89136850
     1         -0.09792160         -3.94957227         13.17338750
     1         -2.88828715         -2.48782321         14.39341588
     1         -1.03840749          1.48537096         13.64149696
     1          1.40540620          1.23792902         11.31943046
     1         -1.49574212          2.79678174         10.57117638

 Electric dipole moment (dipole orientation):
 (Debye = 10**-18 statcoulomb cm , SI units = C m)
                  (au)            (Debye)         (10**-30 SI)
   Tot        0.375870D+01      0.955365D+01      0.318676D+02
   x          0.000000D+00      0.000000D+00      0.000000D+00
   y          0.000000D+00      0.000000D+00      0.000000D+00
   z          0.375870D+01      0.955365D+01      0.318676D+02

 Dipole polarizability, Alpha (dipole orientation).
 (esu units = cm**3 , SI units = C**2 m**2 J**-1)
 Alpha(0;0):
               (au)            (10**-24 esu)      (10**-40 SI)
   iso        0.337692D+03      0.500407D+02      0.556778D+02
   aniso      0.468711D+03      0.694558D+02      0.772800D+02
   xx         0.218579D+03      0.323901D+02      0.360389D+02
   yx         0.975429D+02      0.144544D+02      0.160826D+02
   yy         0.182354D+03      0.270221D+02      0.300662D+02
   zx        -0.715521D+02     -0.106029D+02     -0.117974D+02
   zy        -0.421392D+02     -0.624438D+01     -0.694781D+01
   zz         0.612141D+03      0.907100D+02      0.100928D+03

 First dipole hyperpolarizability, Beta (dipole orientation).
 ||, _|_  parallel and perpendicular components, (z) with respect to z axis,
 vector components x,y,z.  Values do not include the 1/n! factor of 1/2.
 (esu units = statvolt**-1 cm**4 , SI units = C**3 m**3 J**-2)
 Beta(0;0,0):
               (au)            (10**-30 esu)      (10**-50 SI)
   || (z)    -0.119354D+05     -0.103112D+03     -0.382692D+02
   _|_(z)    -0.397846D+04     -0.343708D+02     -0.127564D+02
   x          0.102232D+05      0.883205D+02      0.327793D+02
   y          0.564904D+04      0.488033D+02      0.181129D+02
   z         -0.596769D+05     -0.515562D+03     -0.191346D+03
   ||         0.121618D+05      0.105069D+03      0.389953D+02
   xxx        0.312859D+03      0.270285D+01      0.100314D+01
   xxy        0.188647D+03      0.162977D+01      0.604872D+00
   yxy        0.134339D+03      0.116059D+01      0.430740D+00
   yyy        0.783629D+02      0.676994D+00      0.251260D+00
   xxz       -0.638968D+03     -0.552019D+01     -0.204876D+01
   yxz       -0.504978D+03     -0.436262D+01     -0.161914D+01
   yyz       -0.196751D+03     -0.169978D+01     -0.630855D+00
   zxz        0.296053D+04      0.255767D+02      0.949254D+01
   zyz        0.161600D+04      0.139610D+02      0.518149D+01
   zzz       -0.190566D+05     -0.164634D+03     -0.611023D+02

 ----------------------------------------------------------------------
 Unable to Open any file for archive entry.
 1\1\GINC-N1532\SP\RMP2-FC\CC-pVDZ\C22H18N2O2\KA_PR7831\12-Aug-2025\0\\
 #P mp2/cc-pvdz polar=Cubic\\p1\\0,1\C,0,-1.7811853,3.7063509,-0.122116
 \C,0,-0.5215787,4.3449124,-0.1869911\C,0,0.6621492,3.6321401,-0.166344
 2\C,0,0.654697,2.2232393,-0.0756911\C,0,1.8661732,1.4630705,-0.0654762
 \C,0,1.8497474,0.0989033,0.0254983\C,0,0.6244893,-0.6415185,0.1248434\
 C,0,0.6000981,-2.0713886,0.2345191\C,0,-0.6635921,-2.7035593,0.2993838
 \C,0,-1.8511992,-1.9917447,0.2487012\C,0,-1.8550344,-0.5866546,0.15244
 68\C,0,-3.0657019,0.1727248,0.1232675\C,0,-3.0569958,1.5369097,0.03814
 57\C,0,-1.8275252,2.2770403,-0.0293998\C,0,-0.5954759,1.5332927,-0.002
 7142\C,0,-0.6048642,0.1006952,0.0935307\C,0,-3.0053566,4.490721,-0.150
 7151\C,0,1.8325629,-2.8518108,0.2916384\C,0,-3.1195733,5.8320434,-0.22
 8233\C,0,1.9217361,-4.1766847,-0.0222395\N,0,3.0182853,-4.9852745,0.10
 86898\C,0,3.0878951,-6.2280881,-0.6353866\C,0,4.2603286,-4.4475757,0.6
 200373\N,0,-4.4307195,6.4556556,-0.2466902\O,0,-4.4378887,7.680393,-0.
 3158582\O,0,-5.4348778,5.7550285,-0.1941799\H,0,-0.4781248,5.4334912,-
 0.2580547\H,0,1.6194505,4.1570499,-0.2218409\H,0,2.8171948,1.9974668,-
 0.140427\H,0,2.7983802,-0.4381031,0.0085025\H,0,-0.7093446,-3.7867905,
 0.4302268\H,0,-2.8059205,-2.5221157,0.3094867\H,0,-4.018022,-0.3631058
 ,0.1715892\H,0,-4.0102943,2.0640871,0.0204451\H,0,-3.9637207,3.9708612
 ,-0.1062247\H,0,2.7394141,-2.3316051,0.600012\H,0,-2.3248411,6.5728033
 ,-0.2822156\H,0,1.0470119,-4.696955,-0.4256142\H,0,2.0727142,-6.602851
 8,-0.8330141\H,0,3.6031242,-6.1146782,-1.610813\H,0,3.6277497,-6.99423
 22,-0.0547689\H,0,4.9516905,-5.2716359,0.8491366\H,0,4.7600429,-3.7675
 189,-0.0997332\H,0,4.0786872,-3.8828475,1.5484834\\Version=ES64L-G16Re
 vC.01\State=1-A\HF=-1102.1587944\MP2=-1105.757428\RMSD=6.321e-09\Dipol
 e=2.5266682,-2.7822511,-0.0531502\Polar=359.8270087,-148.064407,551.98
 89142,0.9518614,-12.2160837,101.2591819\HyperPolar=-3345.8488342,4897.
 8228383,-7322.6083769,12466.9959892,-147.5442866,213.8011151,-440.7603
 411,92.6283422,-83.7490272,-27.3107719\DQPolar=120.7808972,13.1390143,
 -133.9199115,-264.197603,3.5812038,21.0005541,-45.1257047,-80.9238939,
 126.0495986,222.5471861,66.0435842,-136.9460512,73.5208308,-134.628482
 3,61.1076514,53.5132038,175.1669472,-234.5247576\Quadrupole=0.2958539,
 5.8080854,-6.1039393,7.8161479,-0.6689971,1.9649755\PG=C01 [X(C22H18N2
 O2)]\\@
 The archive entry for this job was punched.


 QUANTUM MECHANICS IS BOHRING -- M.S. GORDON
 Job cpu time:       9 days 12 hours 38 minutes 14.9 seconds.
 Elapsed time:       1 days  4 hours 40 minutes 23.6 seconds.
 File lengths (MBytes):  RWF= 304133 Int=      0 D2E=      0 Chk=     68 Scr=      1
 Normal termination of Gaussian 16 at Tue Aug 12 14:55:54 2025.
