37
* (null), Energy   -1000.0000000
C    -7.109645    2.748198   -0.247239    0.000488   -0.000830   -0.013581
C    -5.849183    3.386430   -0.246301    0.000317   -0.000564   -0.010678
C    -4.668510    2.673865   -0.145513    0.000552   -0.000970   -0.016218
C    -4.682045    1.267309   -0.038872    0.000569   -0.000986   -0.016762
C    -3.473560    0.508534    0.066608    0.001280   -0.002387   -0.035572
C    -3.493394   -0.853523    0.169551    0.000498   -0.000629   -0.012928
C    -4.722628   -1.597969    0.177730   -0.001624    0.003455    0.046505
C    -4.759138   -3.025665    0.284661   -0.005213    0.010091    0.136045
C    -6.023474   -3.656513    0.283852   -0.005688    0.010788    0.138973
C    -7.206078   -2.943047    0.184327   -0.001303    0.002730    0.031705
C    -7.200850   -1.538995    0.077494    0.000584   -0.000704   -0.013971
C    -8.408708   -0.780290   -0.027205    0.001419   -0.002423   -0.034962
C    -8.393673    0.581794   -0.131108    0.001267   -0.002207   -0.032366
C    -7.161242    1.320646   -0.139879    0.000750   -0.001310   -0.019324
C    -5.933742    0.577422   -0.035188    0.000473   -0.000738   -0.011666
C    -5.948784   -0.854200    0.073501   -0.000073    0.000484    0.004934
C    -8.331577    3.531816   -0.355509    0.000333   -0.000612   -0.010034
C    -3.526935   -3.806770    0.391246   -0.011853    0.023165    0.306560
C    -8.438507    4.870197   -0.469976    0.000022   -0.000089   -0.003700
C    -3.428441   -5.146644    0.504458    0.013573   -0.033769   -0.388866
O    -2.221363   -5.752941    0.594423    0.001384    0.002642    0.020319
N    -9.747075    5.494782   -0.568199   -0.000112    0.000060   -0.000685
O    -9.747494    6.716670   -0.670060   -0.000294    0.000279    0.001866
O   -10.753038    4.795953   -0.545096   -0.000056   -0.000043   -0.001140
H    -5.800607    4.474067   -0.326432    0.000129   -0.000262   -0.006705
H    -3.709616    3.198666   -0.147445    0.000694   -0.001244   -0.019714
H    -2.520344    1.044035    0.063527    0.002910   -0.005529   -0.076603
H    -2.543409   -1.381169    0.247581    0.002802   -0.003593   -0.061924
H    -6.082759   -4.743797    0.363113   -0.014007    0.024961    0.326603
H    -8.162972   -3.472476    0.187723   -0.002223    0.004544    0.054337
H    -9.362201   -1.315901   -0.022800    0.001878   -0.003331   -0.046082
H    -9.343908    1.109145   -0.208360    0.001672   -0.003007   -0.042755
H    -9.291635    3.013311   -0.346886    0.000405   -0.000765   -0.011408
H    -2.571554   -3.280282    0.381093   -0.039347    0.088210    1.108233
H    -7.640444    5.608613   -0.503572   -0.000120    0.000183   -0.001062
H    -4.300458   -5.809801    0.529936    0.046927   -0.113753   -1.332442
H    -2.335864   -6.707548    0.672561    0.026658   -0.062635   -0.740407
37
* Frequency(6)  -73.2070
C    -7.109589    2.748104   -0.248782    0.000488   -0.000830   -0.013581
C    -5.849147    3.386366   -0.247514    0.000317   -0.000564   -0.010678
C    -4.668447    2.673755   -0.147356    0.000552   -0.000970   -0.016218
C    -4.681980    1.267197   -0.040777    0.000569   -0.000986   -0.016762
C    -3.473415    0.508262    0.062565    0.001280   -0.002387   -0.035572
C    -3.493338   -0.853594    0.168082    0.000498   -0.000629   -0.012928
C    -4.722812   -1.597577    0.183015   -0.001624    0.003455    0.046505
C    -4.759731   -3.024518    0.300122   -0.005213    0.010091    0.136045
C    -6.024120   -3.655287    0.299646   -0.005688    0.010788    0.138973
C    -7.206226   -2.942737    0.187930   -0.001303    0.002730    0.031705
C    -7.200784   -1.539076    0.075906    0.000584   -0.000704   -0.013971
C    -8.408546   -0.780565   -0.031178    0.001419   -0.002423   -0.034962
C    -8.393529    0.581543   -0.134786    0.001267   -0.002207   -0.032366
C    -7.161157    1.320497   -0.142075    0.000750   -0.001310   -0.019324
C    -5.933688    0.577338   -0.036514    0.000473   -0.000738   -0.011666
C    -5.948793   -0.854145    0.074062   -0.000073    0.000484    0.004934
C    -8.331539    3.531746   -0.356650    0.000333   -0.000612   -0.010034
C    -3.528282   -3.804138    0.426085   -0.011853    0.023165    0.306560
C    -8.438505    4.870186   -0.470396    0.000022   -0.000089   -0.003700
C    -3.426898   -5.150482    0.460266    0.013573   -0.033769   -0.388866
O    -2.221205   -5.752641    0.596732    0.001384    0.002642    0.020319
N    -9.747088    5.494788   -0.568277   -0.000112    0.000060   -0.000685
O    -9.747527    6.716701   -0.669848   -0.000294    0.000279    0.001866
O   -10.753044    4.795948   -0.545226   -0.000056   -0.000043   -0.001140
H    -5.800593    4.474037   -0.327194    0.000129   -0.000262   -0.006705
H    -3.709537    3.198525   -0.149685    0.000694   -0.001244   -0.019714
H    -2.520013    1.043406    0.054821    0.002910   -0.005529   -0.076603
H    -2.543090   -1.381578    0.240544    0.002802   -0.003593   -0.061924
H    -6.084351   -4.740960    0.400230   -0.014007    0.024961    0.326603
H    -8.163225   -3.471959    0.193899   -0.002223    0.004544    0.054337
H    -9.361988   -1.316280   -0.028037    0.001878   -0.003331   -0.046082
H    -9.343718    1.108803   -0.213219    0.001672   -0.003007   -0.042755
H    -9.291589    3.013224   -0.348182    0.000405   -0.000765   -0.011408
H    -2.576026   -3.270258    0.507038   -0.039347    0.088210    1.108233
H    -7.640457    5.608634   -0.503693   -0.000120    0.000183   -0.001062
H    -4.295125   -5.822729    0.378511    0.046927   -0.113753   -1.332442
H    -2.332834   -6.714666    0.588418    0.026658   -0.062635   -0.740407
37
* Frequency(6)  -73.2070
C    -7.109540    2.748020   -0.250158    0.000488   -0.000830   -0.013581
C    -5.849115    3.386309   -0.248596    0.000317   -0.000564   -0.010678
C    -4.668391    2.673657   -0.148999    0.000552   -0.000970   -0.016218
C    -4.681922    1.267097   -0.042475    0.000569   -0.000986   -0.016762
C    -3.473285    0.508021    0.058961    0.001280   -0.002387   -0.035572
C    -3.493287   -0.853658    0.166772    0.000498   -0.000629   -0.012928
C    -4.722977   -1.597226    0.187727   -0.001624    0.003455    0.046505
C    -4.760259   -3.023495    0.313907   -0.005213    0.010091    0.136045
C    -6.024697   -3.654194    0.313728   -0.005688    0.010788    0.138973
C    -7.206358   -2.942460    0.191143   -0.001303    0.002730    0.031705
C    -7.200724   -1.539147    0.074490    0.000584   -0.000704   -0.013971
C    -8.408403   -0.780811   -0.034721    0.001419   -0.002423   -0.034962
C    -8.393401    0.581320   -0.138066    0.001267   -0.002207   -0.032366
C    -7.161081    1.320364   -0.144033    0.000750   -0.001310   -0.019324
C    -5.933641    0.577263   -0.037696    0.000473   -0.000738   -0.011666
C    -5.948800   -0.854096    0.074562   -0.000073    0.000484    0.004934
C    -8.331505    3.531684   -0.357666    0.000333   -0.000612   -0.010034
C    -3.529483   -3.801791    0.457149   -0.011853    0.023165    0.306560
C    -8.438503    4.870177   -0.470771    0.000022   -0.000089   -0.003700
C    -3.425523   -5.153903    0.420862    0.013573   -0.033769   -0.388866
O    -2.221065   -5.752373    0.598791    0.001384    0.002642    0.020319
N    -9.747099    5.494795   -0.568347   -0.000112    0.000060   -0.000685
O    -9.747557    6.716730   -0.669659   -0.000294    0.000279    0.001866
O   -10.753050    4.795943   -0.545341   -0.000056   -0.000043   -0.001140
H    -5.800580    4.474010   -0.327874    0.000129   -0.000262   -0.006705
H    -3.709466    3.198399   -0.151683    0.000694   -0.001244   -0.019714
H    -2.519718    1.042846    0.047059    0.002910   -0.005529   -0.076603
H    -2.542807   -1.381942    0.234269    0.002802   -0.003593   -0.061924
H    -6.085771   -4.738431    0.433324   -0.014007    0.024961    0.326603
H    -8.163450   -3.471499    0.199405   -0.002223    0.004544    0.054337
H    -9.361798   -1.316618   -0.032706    0.001878   -0.003331   -0.046082
H    -9.343549    1.108499   -0.217551    0.001672   -0.003007   -0.042755
H    -9.291548    3.013146   -0.349338    0.000405   -0.000765   -0.011408
H    -2.580013   -3.261319    0.619334   -0.039347    0.088210    1.108233
H    -7.640469    5.608652   -0.503801   -0.000120    0.000183   -0.001062
H    -4.290369   -5.834255    0.243495    0.046927   -0.113753   -1.332442
H    -2.330133   -6.721013    0.513392    0.026658   -0.062635   -0.740407
37
* Frequency(6)  -73.2070
C    -7.109502    2.747955   -0.251218    0.000488   -0.000830   -0.013581
C    -5.849090    3.386265   -0.249430    0.000317   -0.000564   -0.010678
C    -4.668348    2.673581   -0.150265    0.000552   -0.000970   -0.016218
C    -4.681878    1.267020   -0.043783    0.000569   -0.000986   -0.016762
C    -3.473185    0.507834    0.056185    0.001280   -0.002387   -0.035572
C    -3.493248   -0.853707    0.165763    0.000498   -0.000629   -0.012928
C    -4.723104   -1.596957    0.191356   -0.001624    0.003455    0.046505
C    -4.760666   -3.022708    0.324523   -0.005213    0.010091    0.136045
C    -6.025140   -3.653352    0.324573   -0.005688    0.010788    0.138973
C    -7.206460   -2.942247    0.193617   -0.001303    0.002730    0.031705
C    -7.200679   -1.539202    0.073400    0.000584   -0.000704   -0.013971
C    -8.408292   -0.781000   -0.037449    0.001419   -0.002423   -0.034962
C    -8.393302    0.581148   -0.140592    0.001267   -0.002207   -0.032366
C    -7.161022    1.320262   -0.145541    0.000750   -0.001310   -0.019324
C    -5.933604    0.577205   -0.038606    0.000473   -0.000738   -0.011666
C    -5.948806   -0.854058    0.074947   -0.000073    0.000484    0.004934
C    -8.331479    3.531636   -0.358449    0.000333   -0.000612   -0.010034
C    -3.530408   -3.799983    0.481071   -0.011853    0.023165    0.306560
C    -8.438501    4.870170   -0.471060    0.000022   -0.000089   -0.003700
C    -3.424464   -5.156539    0.390517    0.013573   -0.033769   -0.388866
O    -2.220957   -5.752167    0.600376    0.001384    0.002642    0.020319
N    -9.747108    5.494799   -0.568400   -0.000112    0.000060   -0.000685
O    -9.747580    6.716751   -0.669513   -0.000294    0.000279    0.001866
O   -10.753054    4.795940   -0.545430   -0.000056   -0.000043   -0.001140
H    -5.800569    4.473990   -0.328397    0.000129   -0.000262   -0.006705
H    -3.709412    3.198302   -0.153221    0.000694   -0.001244   -0.019714
H    -2.519491    1.042415    0.041082    0.002910   -0.005529   -0.076603
H    -2.542588   -1.382222    0.229437    0.002802   -0.003593   -0.061924
H    -6.086864   -4.736483    0.458811   -0.014007    0.024961    0.326603
H    -8.163623   -3.471144    0.203645   -0.002223    0.004544    0.054337
H    -9.361651   -1.316878   -0.036302    0.001878   -0.003331   -0.046082
H    -9.343418    1.108264   -0.220887    0.001672   -0.003007   -0.042755
H    -9.291517    3.013087   -0.350229    0.000405   -0.000765   -0.011408
H    -2.583083   -3.254436    0.705814   -0.039347    0.088210    1.108233
H    -7.640479    5.608666   -0.503884   -0.000120    0.000183   -0.001062
H    -4.286708   -5.843132    0.139520    0.046927   -0.113753   -1.332442
H    -2.328053   -6.725900    0.455616    0.026658   -0.062635   -0.740407
37
* Frequency(6)  -73.2070
C    -7.109479    2.747917   -0.251847    0.000488   -0.000830   -0.013581
C    -5.849075    3.386239   -0.249924    0.000317   -0.000564   -0.010678
C    -4.668322    2.673536   -0.151016    0.000552   -0.000970   -0.016218
C    -4.681852    1.266975   -0.044559    0.000569   -0.000986   -0.016762
C    -3.473126    0.507724    0.054539    0.001280   -0.002387   -0.035572
C    -3.493225   -0.853736    0.165165    0.000498   -0.000629   -0.012928
C    -4.723179   -1.596797    0.193508   -0.001624    0.003455    0.046505
C    -4.760907   -3.022241    0.330820   -0.005213    0.010091    0.136045
C    -6.025404   -3.652853    0.331004   -0.005688    0.010788    0.138973
C    -7.206520   -2.942121    0.195084   -0.001303    0.002730    0.031705
C    -7.200652   -1.539234    0.072753    0.000584   -0.000704   -0.013971
C    -8.408226   -0.781112   -0.039067    0.001419   -0.002423   -0.034962
C    -8.393243    0.581045   -0.142090    0.001267   -0.002207   -0.032366
C    -7.160987    1.320201   -0.146435    0.000750   -0.001310   -0.019324
C    -5.933582    0.577171   -0.039146    0.000473   -0.000738   -0.011666
C    -5.948809   -0.854036    0.075175   -0.000073    0.000484    0.004934
C    -8.331464    3.531608   -0.358914    0.000333   -0.000612   -0.010034
C    -3.530956   -3.798911    0.495259   -0.011853    0.023165    0.306560
C    -8.438500    4.870166   -0.471231    0.000022   -0.000089   -0.003700
C    -3.423836   -5.158101    0.372520    0.013573   -0.033769   -0.388866
O    -2.220893   -5.752044    0.601317    0.001384    0.002642    0.020319
N    -9.747113    5.494802   -0.568432   -0.000112    0.000060   -0.000685
O    -9.747594    6.716764   -0.669427   -0.000294    0.000279    0.001866
O   -10.753057    4.795938   -0.545483   -0.000056   -0.000043   -0.001140
H    -5.800564    4.473978   -0.328707    0.000129   -0.000262   -0.006705
H    -3.709380    3.198244   -0.154134    0.000694   -0.001244   -0.019714
H    -2.519357    1.042159    0.037536    0.002910   -0.005529   -0.076603
H    -2.542458   -1.382388    0.226571    0.002802   -0.003593   -0.061924
H    -6.087512   -4.735328    0.473926   -0.014007    0.024961    0.326603
H    -8.163726   -3.470934    0.206160   -0.002223    0.004544    0.054337
H    -9.361564   -1.317032   -0.038435    0.001878   -0.003331   -0.046082
H    -9.343341    1.108125   -0.222866    0.001672   -0.003007   -0.042755
H    -9.291498    3.013051   -0.350757    0.000405   -0.000765   -0.011408
H    -2.584904   -3.250353    0.757105   -0.039347    0.088210    1.108233
H    -7.640484    5.608675   -0.503933   -0.000120    0.000183   -0.001062
H    -4.284536   -5.848396    0.077852    0.046927   -0.113753   -1.332442
H    -2.326819   -6.728799    0.421348    0.026658   -0.062635   -0.740407
37
* Frequency(6)  -73.2070
C    -7.109475    2.747909   -0.251976    0.000488   -0.000830   -0.013581
C    -5.849072    3.386233   -0.250026    0.000317   -0.000564   -0.010678
C    -4.668317    2.673527   -0.151170    0.000552   -0.000970   -0.016218
C    -4.681846    1.266965   -0.044719    0.000569   -0.000986   -0.016762
C    -3.473114    0.507701    0.054200    0.001280   -0.002387   -0.035572
C    -3.493220   -0.853742    0.165042    0.000498   -0.000629   -0.012928
C    -4.723194   -1.596764    0.193951   -0.001624    0.003455    0.046505
C    -4.760957   -3.022145    0.332114   -0.005213    0.010091    0.136045
C    -6.025458   -3.652750    0.332327   -0.005688    0.010788    0.138973
C    -7.206533   -2.942095    0.195386   -0.001303    0.002730    0.031705
C    -7.200646   -1.539241    0.072620    0.000584   -0.000704   -0.013971
C    -8.408213   -0.781135   -0.039400    0.001419   -0.002423   -0.034962
C    -8.393231    0.581024   -0.142398    0.001267   -0.002207   -0.032366
C    -7.160980    1.320189   -0.146619    0.000750   -0.001310   -0.019324
C    -5.933577    0.577164   -0.039257    0.000473   -0.000738   -0.011666
C    -5.948810   -0.854031    0.075222   -0.000073    0.000484    0.004934
C    -8.331461    3.531602   -0.359009    0.000333   -0.000612   -0.010034
C    -3.531069   -3.798690    0.498176   -0.011853    0.023165    0.306560
C    -8.438500    4.870165   -0.471266    0.000022   -0.000089   -0.003700
C    -3.423707   -5.158423    0.368820    0.013573   -0.033769   -0.388866
O    -2.220880   -5.752019    0.601510    0.001384    0.002642    0.020319
N    -9.747114    5.494803   -0.568438   -0.000112    0.000060   -0.000685
O    -9.747597    6.716767   -0.669409   -0.000294    0.000279    0.001866
O   -10.753058    4.795938   -0.545494   -0.000056   -0.000043   -0.001140
H    -5.800562    4.473975   -0.328771    0.000129   -0.000262   -0.006705
H    -3.709373    3.198232   -0.154321    0.000694   -0.001244   -0.019714
H    -2.519329    1.042106    0.036808    0.002910   -0.005529   -0.076603
H    -2.542432   -1.382423    0.225982    0.002802   -0.003593   -0.061924
H    -6.087645   -4.735090    0.477034   -0.014007    0.024961    0.326603
H    -8.163747   -3.470891    0.206677   -0.002223    0.004544    0.054337
H    -9.361546   -1.317063   -0.038874    0.001878   -0.003331   -0.046082
H    -9.343325    1.108096   -0.223273    0.001672   -0.003007   -0.042755
H    -9.291494    3.013044   -0.350865    0.000405   -0.000765   -0.011408
H    -2.585278   -3.249514    0.767649   -0.039347    0.088210    1.108233
H    -7.640485    5.608677   -0.503943   -0.000120    0.000183   -0.001062
H    -4.284089   -5.849479    0.065174    0.046927   -0.113753   -1.332442
H    -2.326565   -6.729395    0.414304    0.026658   -0.062635   -0.740407
37
* Frequency(6)  -73.2070
C    -7.109488    2.747932   -0.251592    0.000488   -0.000830   -0.013581
C    -5.849081    3.386249   -0.249724    0.000317   -0.000564   -0.010678
C    -4.668333    2.673554   -0.150711    0.000552   -0.000970   -0.016218
C    -4.681862    1.266993   -0.044244    0.000569   -0.000986   -0.016762
C    -3.473150    0.507769    0.055206    0.001280   -0.002387   -0.035572
C    -3.493235   -0.853724    0.165407    0.000498   -0.000629   -0.012928
C    -4.723148   -1.596862    0.192636   -0.001624    0.003455    0.046505
C    -4.760809   -3.022430    0.328266   -0.005213    0.010091    0.136045
C    -6.025297   -3.653055    0.328396   -0.005688    0.010788    0.138973
C    -7.206496   -2.942172    0.194489   -0.001303    0.002730    0.031705
C    -7.200663   -1.539221    0.073016    0.000584   -0.000704   -0.013971
C    -8.408253   -0.781066   -0.038411    0.001419   -0.002423   -0.034962
C    -8.393267    0.581087   -0.141482    0.001267   -0.002207   -0.032366
C    -7.161001    1.320226   -0.146072    0.000750   -0.001310   -0.019324
C    -5.933591    0.577185   -0.038927    0.000473   -0.000738   -0.011666
C    -5.948808   -0.854045    0.075083   -0.000073    0.000484    0.004934
C    -8.331470    3.531619   -0.358725    0.000333   -0.000612   -0.010034
C    -3.530734   -3.799346    0.489505   -0.011853    0.023165    0.306560
C    -8.438500    4.870168   -0.471162    0.000022   -0.000089   -0.003700
C    -3.424090   -5.157468    0.379819    0.013573   -0.033769   -0.388866
O    -2.220919   -5.752094    0.600935    0.001384    0.002642    0.020319
N    -9.747111    5.494801   -0.568419   -0.000112    0.000060   -0.000685
O    -9.747588    6.716759   -0.669462   -0.000294    0.000279    0.001866
O   -10.753056    4.795939   -0.545462   -0.000056   -0.000043   -0.001140
H    -5.800566    4.473983   -0.328581    0.000129   -0.000262   -0.006705
H    -3.709393    3.198267   -0.153764    0.000694   -0.001244   -0.019714
H    -2.519411    1.042263    0.038974    0.002910   -0.005529   -0.076603
H    -2.542511   -1.382321    0.227734    0.002802   -0.003593   -0.061924
H    -6.087249   -4.735796    0.467796   -0.014007    0.024961    0.326603
H    -8.163685   -3.471019    0.205140   -0.002223    0.004544    0.054337
H    -9.361600   -1.316969   -0.037570    0.001878   -0.003331   -0.046082
H    -9.343372    1.108181   -0.222064    0.001672   -0.003007   -0.042755
H    -9.291505    3.013066   -0.350542    0.000405   -0.000765   -0.011408
H    -2.584166   -3.252009    0.736304   -0.039347    0.088210    1.108233
H    -7.640482    5.608671   -0.503913   -0.000120    0.000183   -0.001062
H    -4.285416   -5.846261    0.102861    0.046927   -0.113753   -1.332442
H    -2.327319   -6.727624    0.435245    0.026658   -0.062635   -0.740407
37
* Frequency(6)  -73.2070
C    -7.109519    2.747984   -0.250736    0.000488   -0.000830   -0.013581
C    -5.849101    3.386285   -0.249051    0.000317   -0.000564   -0.010678
C    -4.668367    2.673616   -0.149689    0.000552   -0.000970   -0.016218
C    -4.681898    1.267055   -0.043188    0.000569   -0.000986   -0.016762
C    -3.473231    0.507919    0.057448    0.001280   -0.002387   -0.035572
C    -3.493266   -0.853685    0.166222    0.000498   -0.000629   -0.012928
C    -4.723046   -1.597079    0.189705   -0.001624    0.003455    0.046505
C    -4.760481   -3.023066    0.319693   -0.005213    0.010091    0.136045
C    -6.024938   -3.653735    0.319638   -0.005688    0.010788    0.138973
C    -7.206414   -2.942344    0.192491   -0.001303    0.002730    0.031705
C    -7.200700   -1.539177    0.073896    0.000584   -0.000704   -0.013971
C    -8.408342   -0.780914   -0.036208    0.001419   -0.002423   -0.034962
C    -8.393347    0.581226   -0.139442    0.001267   -0.002207   -0.032366
C    -7.161049    1.320309   -0.144855    0.000750   -0.001310   -0.019324
C    -5.933621    0.577232   -0.038192    0.000473   -0.000738   -0.011666
C    -5.948803   -0.854075    0.074772   -0.000073    0.000484    0.004934
C    -8.331491    3.531658   -0.358093    0.000333   -0.000612   -0.010034
C    -3.529987   -3.800805    0.470186   -0.011853    0.023165    0.306560
C    -8.438502    4.870174   -0.470929    0.000022   -0.000089   -0.003700
C    -3.424946   -5.155340    0.404324    0.013573   -0.033769   -0.388866
O    -2.221006   -5.752261    0.599655    0.001384    0.002642    0.020319
N    -9.747104    5.494797   -0.568376   -0.000112    0.000060   -0.000685
O    -9.747570    6.716742   -0.669580   -0.000294    0.000279    0.001866
O   -10.753052    4.795942   -0.545390   -0.000056   -0.000043   -0.001140
H    -5.800574    4.473999   -0.328159    0.000129   -0.000262   -0.006705
H    -3.709437    3.198346   -0.152521    0.000694   -0.001244   -0.019714
H    -2.519595    1.042611    0.043801    0.002910   -0.005529   -0.076603
H    -2.542687   -1.382094    0.231636    0.002802   -0.003593   -0.061924
H    -6.086366   -4.737369    0.447215   -0.014007    0.024961    0.326603
H    -8.163545   -3.471306    0.201716   -0.002223    0.004544    0.054337
H    -9.361718   -1.316759   -0.034666    0.001878   -0.003331   -0.046082
H    -9.343477    1.108371   -0.219369    0.001672   -0.003007   -0.042755
H    -9.291531    3.013114   -0.349824    0.000405   -0.000765   -0.011408
H    -2.581686   -3.257568    0.666466   -0.039347    0.088210    1.108233
H    -7.640474    5.608660   -0.503846   -0.000120    0.000183   -0.001062
H    -4.288374   -5.839093    0.186828    0.046927   -0.113753   -1.332442
H    -2.328999   -6.723677    0.481904    0.026658   -0.062635   -0.740407
37
* Frequency(6)  -73.2070
C    -7.109564    2.748060   -0.249501    0.000488   -0.000830   -0.013581
C    -5.849130    3.386336   -0.248080    0.000317   -0.000564   -0.010678
C    -4.668418    2.673704   -0.148215    0.000552   -0.000970   -0.016218
C    -4.681950    1.267145   -0.041664    0.000569   -0.000986   -0.016762
C    -3.473347    0.508136    0.060682    0.001280   -0.002387   -0.035572
C    -3.493311   -0.853627    0.167398    0.000498   -0.000629   -0.012928
C    -4.722898   -1.597394    0.185477   -0.001624    0.003455    0.046505
C    -4.760007   -3.023984    0.307324   -0.005213    0.010091    0.136045
C    -6.024421   -3.654716    0.307003   -0.005688    0.010788    0.138973
C    -7.206295   -2.942593    0.189609   -0.001303    0.002730    0.031705
C    -7.200753   -1.539113    0.075166    0.000584   -0.000704   -0.013971
C    -8.408471   -0.780694   -0.033029    0.001419   -0.002423   -0.034962
C    -8.393462    0.581427   -0.136500    0.001267   -0.002207   -0.032366
C    -7.161117    1.320428   -0.143098    0.000750   -0.001310   -0.019324
C    -5.933663    0.577299   -0.037131    0.000473   -0.000738   -0.011666
C    -5.948796   -0.854119    0.074323   -0.000073    0.000484    0.004934
C    -8.331521    3.531714   -0.357181    0.000333   -0.000612   -0.010034
C    -3.528909   -3.802912    0.442313   -0.011853    0.023165    0.306560
C    -8.438504    4.870182   -0.470592    0.000022   -0.000089   -0.003700
C    -3.426180   -5.152269    0.439680    0.013573   -0.033769   -0.388866
O    -2.221132   -5.752501    0.597807    0.001384    0.002642    0.020319
N    -9.747094    5.494792   -0.568313   -0.000112    0.000060   -0.000685
O    -9.747543    6.716716   -0.669749   -0.000294    0.000279    0.001866
O   -10.753047    4.795946   -0.545286   -0.000056   -0.000043   -0.001140
H    -5.800586    4.474023   -0.327549    0.000129   -0.000262   -0.006705
H    -3.709500    3.198459   -0.150729    0.000694   -0.001244   -0.019714
H    -2.519859    1.043114    0.050766    0.002910   -0.005529   -0.076603
H    -2.542942   -1.381768    0.237266    0.002802   -0.003593   -0.061924
H    -6.085093   -4.739639    0.417519   -0.014007    0.024961    0.326603
H    -8.163342   -3.471719    0.196775   -0.002223    0.004544    0.054337
H    -9.361889   -1.316456   -0.030476    0.001878   -0.003331   -0.046082
H    -9.343629    1.108644   -0.215482    0.001672   -0.003007   -0.042755
H    -9.291568    3.013183   -0.348786    0.000405   -0.000765   -0.011408
H    -2.578109   -3.265588    0.565704   -0.039347    0.088210    1.108233
H    -7.640463    5.608643   -0.503749   -0.000120    0.000183   -0.001062
H    -4.292640   -5.828750    0.307976    0.046927   -0.113753   -1.332442
H    -2.331423   -6.717982    0.549223    0.026658   -0.062635   -0.740407
37
* Frequency(6)  -73.2070
C    -7.109617    2.748150   -0.248021    0.000488   -0.000830   -0.013581
C    -5.849165    3.386397   -0.246916    0.000317   -0.000564   -0.010678
C    -4.668478    2.673809   -0.146447    0.000552   -0.000970   -0.016218
C    -4.682012    1.267253   -0.039837    0.000569   -0.000986   -0.016762
C    -3.473487    0.508396    0.064559    0.001280   -0.002387   -0.035572
C    -3.493365   -0.853559    0.168806    0.000498   -0.000629   -0.012928
C    -4.722721   -1.597770    0.180409   -0.001624    0.003455    0.046505
C    -4.759439   -3.025083    0.292498   -0.005213    0.010091    0.136045
C    -6.023801   -3.655891    0.291858   -0.005688    0.010788    0.138973
C    -7.206153   -2.942890    0.186154   -0.001303    0.002730    0.031705
C    -7.200816   -1.539036    0.076689    0.000584   -0.000704   -0.013971
C    -8.408626   -0.780430   -0.029219    0.001419   -0.002423   -0.034962
C    -8.393600    0.581667   -0.132973    0.001267   -0.002207   -0.032366
C    -7.161199    1.320571   -0.140992    0.000750   -0.001310   -0.019324
C    -5.933715    0.577379   -0.035860    0.000473   -0.000738   -0.011666
C    -5.948788   -0.854172    0.073786   -0.000073    0.000484    0.004934
C    -8.331558    3.531780   -0.356087    0.000333   -0.000612   -0.010034
C    -3.527617   -3.805436    0.408906   -0.011853    0.023165    0.306560
C    -8.438506    4.870191   -0.470189    0.000022   -0.000089   -0.003700
C    -3.427659   -5.148589    0.482056    0.013573   -0.033769   -0.388866
O    -2.221283   -5.752789    0.595593    0.001384    0.002642    0.020319
N    -9.747081    5.494785   -0.568239   -0.000112    0.000060   -0.000685
O    -9.747511    6.716686   -0.669953   -0.000294    0.000279    0.001866
O   -10.753041    4.795950   -0.545162   -0.000056   -0.000043   -0.001140
H    -5.800600    4.474052   -0.326818    0.000129   -0.000262   -0.006705
H    -3.709576    3.198594   -0.148580    0.000694   -0.001244   -0.019714
H    -2.520176    1.043716    0.059114    0.002910   -0.005529   -0.076603
H    -2.543247   -1.381376    0.244014    0.002802   -0.003593   -0.061924
H    -6.083566   -4.742359    0.381928   -0.014007    0.024961    0.326603
H    -8.163100   -3.472214    0.190854   -0.002223    0.004544    0.054337
H    -9.362093   -1.316093   -0.025455    0.001878   -0.003331   -0.046082
H    -9.343812    1.108972   -0.210823    0.001672   -0.003007   -0.042755
H    -9.291612    3.013267   -0.347543    0.000405   -0.000765   -0.011408
H    -2.573821   -3.275201    0.444936   -0.039347    0.088210    1.108233
H    -7.640450    5.608623   -0.503634   -0.000120    0.000183   -0.001062
H    -4.297754   -5.816354    0.453177    0.046927   -0.113753   -1.332442
H    -2.334328   -6.711156    0.629908    0.026658   -0.062635   -0.740407
37
* Frequency(6)  -73.2070
C    -7.109673    2.748246   -0.246456    0.000488   -0.000830   -0.013581
C    -5.849201    3.386462   -0.245686    0.000317   -0.000564   -0.010678
C    -4.668541    2.673921   -0.144579    0.000552   -0.000970   -0.016218
C    -4.682077    1.267366   -0.037906    0.000569   -0.000986   -0.016762
C    -3.473634    0.508671    0.068657    0.001280   -0.002387   -0.035572
C    -3.493423   -0.853486    0.170296    0.000498   -0.000629   -0.012928
C    -4.722534   -1.598168    0.175051   -0.001624    0.003455    0.046505
C    -4.758838   -3.026246    0.276824   -0.005213    0.010091    0.136045
C    -6.023146   -3.657134    0.275846   -0.005688    0.010788    0.138973
C    -7.206003   -2.943205    0.182501   -0.001303    0.002730    0.031705
C    -7.200884   -1.538955    0.078298    0.000584   -0.000704   -0.013971
C    -8.408789   -0.780150   -0.025191    0.001419   -0.002423   -0.034962
C    -8.393746    0.581921   -0.129244    0.001267   -0.002207   -0.032366
C    -7.161285    1.320721   -0.138766    0.000750   -0.001310   -0.019324
C    -5.933769    0.577464   -0.034516    0.000473   -0.000738   -0.011666
C    -5.948780   -0.854228    0.073217   -0.000073    0.000484    0.004934
C    -8.331596    3.531851   -0.354931    0.000333   -0.000612   -0.010034
C    -3.526252   -3.808105    0.373586   -0.011853    0.023165    0.306560
C    -8.438509    4.870202   -0.469763    0.000022   -0.000089   -0.003700
C    -3.429223   -5.144699    0.526860    0.013573   -0.033769   -0.388866
O    -2.221442   -5.753093    0.593252    0.001384    0.002642    0.020319
N    -9.747068    5.494778   -0.568160   -0.000112    0.000060   -0.000685
O    -9.747477    6.716654   -0.670168   -0.000294    0.000279    0.001866
O   -10.753035    4.795955   -0.545031   -0.000056   -0.000043   -0.001140
H    -5.800615    4.474082   -0.326046    0.000129   -0.000262   -0.006705