Start Job  on nano06

                                 *****************
                                 * O   R   C   A *
                                 *****************

                                            #,                                       
                                            ###                                      
                                            ####                                     
                                            #####                                    
                                            ######                                   
                                           ########,                                 
                                     ,,################,,,,,                         
                               ,,#################################,,                 
                          ,,##########################################,,             
                       ,#########################################, ''#####,          
                    ,#############################################,,   '####,        
                  ,##################################################,,,,####,       
                ,###########''''           ''''###############################       
              ,#####''   ,,,,##########,,,,          '''####'''          '####       
            ,##' ,,,,###########################,,,                        '##       
           ' ,,###''''                  '''############,,,                           
         ,,##''                                '''############,,,,        ,,,,,,###''
      ,#''                                            '''#######################'''  
     '                                                          ''''####''''         
             ,#######,   #######,   ,#######,      ##                                
            ,#'     '#,  ##    ##  ,#'     '#,    #''#        ######   ,####,        
            ##       ##  ##   ,#'  ##            #'  '#       #        #'  '#        
            ##       ##  #######   ##           ,######,      #####,   #    #        
            '#,     ,#'  ##    ##  '#,     ,#' ,#      #,         ##   #,  ,#        
             '#######'   ##     ##  '#######'  #'      '#     #####' # '####'        



                  #######################################################
                  #                        -***-                        #
                  #          Department of theory and spectroscopy      #
                  #    Directorship and core code : Frank Neese         #
                  #        Max Planck Institute fuer Kohlenforschung    #
                  #                Kaiser Wilhelm Platz 1               #
                  #                 D-45470 Muelheim/Ruhr               #
                  #                      Germany                        #
                  #                                                     #
                  #                  All rights reserved                #
                  #                        -***-                        #
                  #######################################################


                         Program Version 5.0.4 -  RELEASE  -


 With contributions from (in alphabetic order):
   Daniel Aravena         : Magnetic Suceptibility
   Michael Atanasov       : Ab Initio Ligand Field Theory (pilot matlab implementation)
   Alexander A. Auer      : GIAO ZORA, VPT2 properties, NMR spectrum
   Ute Becker             : Parallelization
   Giovanni Bistoni       : ED, misc. LED, open-shell LED, HFLD
   Martin Brehm           : Molecular dynamics
   Dmytro Bykov           : SCF Hessian
   Vijay G. Chilkuri      : MRCI spin determinant printing, contributions to CSF-ICE
   Dipayan Datta          : RHF DLPNO-CCSD density
   Achintya Kumar Dutta   : EOM-CC, STEOM-CC
   Dmitry Ganyushin       : Spin-Orbit,Spin-Spin,Magnetic field MRCI
   Miquel Garcia          : C-PCM and meta-GGA Hessian, CC/C-PCM, Gaussian charge scheme
   Yang Guo               : DLPNO-NEVPT2, F12-NEVPT2, CIM, IAO-localization
   Andreas Hansen         : Spin unrestricted coupled pair/coupled cluster methods
   Benjamin Helmich-Paris : MC-RPA, TRAH-SCF, COSX integrals
   Lee Huntington         : MR-EOM, pCC
   Robert Izsak           : Overlap fitted RIJCOSX, COSX-SCS-MP3, EOM
   Marcus Kettner         : VPT2
   Christian Kollmar      : KDIIS, OOCD, Brueckner-CCSD(T), CCSD density, CASPT2, CASPT2-K
   Simone Kossmann        : Meta GGA functionals, TD-DFT gradient, OOMP2, MP2 Hessian
   Martin Krupicka        : Initial AUTO-CI
   Lucas Lang             : DCDCAS
   Marvin Lechner         : AUTO-CI (C++ implementation), FIC-MRCC
   Dagmar Lenk            : GEPOL surface, SMD
   Dimitrios Liakos       : Extrapolation schemes; Compound Job, initial MDCI parallelization
   Dimitrios Manganas     : Further ROCIS development; embedding schemes
   Dimitrios Pantazis     : SARC Basis sets
   Anastasios Papadopoulos: AUTO-CI, single reference methods and gradients
   Taras Petrenko         : DFT Hessian,TD-DFT gradient, ASA, ECA, R-Raman, ABS, FL, XAS/XES, NRVS
   Peter Pinski           : DLPNO-MP2, DLPNO-MP2 Gradient
   Christoph Reimann      : Effective Core Potentials
   Marius Retegan         : Local ZFS, SOC
   Christoph Riplinger    : Optimizer, TS searches, QM/MM, DLPNO-CCSD(T), (RO)-DLPNO pert. Triples
   Tobias Risthaus        : Range-separated hybrids, TD-DFT gradient, RPA, STAB
   Michael Roemelt        : Original ROCIS implementation
   Masaaki Saitow         : Open-shell DLPNO-CCSD energy and density
   Barbara Sandhoefer     : DKH picture change effects
   Avijit Sen             : IP-ROCIS
   Kantharuban Sivalingam : CASSCF convergence, NEVPT2, FIC-MRCI
   Bernardo de Souza      : ESD, SOC TD-DFT
   Georgi Stoychev        : AutoAux, RI-MP2 NMR, DLPNO-MP2 response
   Willem Van den Heuvel  : Paramagnetic NMR
   Boris Wezisla          : Elementary symmetry handling
   Frank Wennmohs         : Technical directorship


 We gratefully acknowledge several colleagues who have allowed us to
 interface, adapt or use parts of their codes:
   Stefan Grimme, W. Hujo, H. Kruse, P. Pracht,  : VdW corrections, initial TS optimization,
                  C. Bannwarth, S. Ehlert          DFT functionals, gCP, sTDA/sTD-DF
   Ed Valeev, F. Pavosevic, A. Kumar             : LibInt (2-el integral package), F12 methods
   Garnet Chan, S. Sharma, J. Yang, R. Olivares  : DMRG
   Ulf Ekstrom                                   : XCFun DFT Library
   Mihaly Kallay                                 : mrcc  (arbitrary order and MRCC methods)
   Jiri Pittner, Ondrej Demel                    : Mk-CCSD
   Frank Weinhold                                : gennbo (NPA and NBO analysis)
   Christopher J. Cramer and Donald G. Truhlar   : smd solvation model
   Lars Goerigk                                  : TD-DFT with DH, B97 family of functionals
   V. Asgeirsson, H. Jonsson                     : NEB implementation
   FAccTs GmbH                                   : IRC, NEB, NEB-TS, DLPNO-Multilevel, CI-OPT
                                                   MM, QMMM, 2- and 3-layer-ONIOM, Crystal-QMMM,
                                                   LR-CPCM, SF, NACMEs, symmetry and pop. for TD-DFT,
                                                   nearIR, NL-DFT gradient (VV10), updates on ESD,
                                                   ML-optimized integration grids
   S Lehtola, MJT Oliveira, MAL Marques          : LibXC Library
   Liviu Ungur et al                             : ANISO software


 Your calculation uses the libint2 library for the computation of 2-el integrals
 For citations please refer to: http://libint.valeyev.net

 Your ORCA version has been built with support for libXC version: 5.1.0
 For citations please refer to: https://tddft.org/programs/libxc/

 This ORCA versions uses:
   CBLAS   interface :  Fast vector & matrix operations
   LAPACKE interface :  Fast linear algebra routines
   SCALAPACK package :  Parallel linear algebra routines
   Shared memory     :  Shared parallel matrices
   BLAS/LAPACK       :  OpenBLAS 0.3.15  USE64BITINT DYNAMIC_ARCH NO_AFFINITY Zen SINGLE_THREADED
        Core in use  :  Zen
   Copyright (c) 2011-2014, The OpenBLAS Project


================================================================================

----- Orbital basis set information -----
Your calculation utilizes the basis: def2-SVP
   F. Weigend and R. Ahlrichs, Phys. Chem. Chem. Phys. 7, 3297 (2005).

----- AuxJ basis set information -----
Your calculation utilizes the auxiliary basis: def2/J
   F. Weigend, Phys. Chem. Chem. Phys. 8, 1057 (2006).

================================================================================
                                        WARNINGS
                       Please study these warnings very carefully!
================================================================================


WARNING: Geometry Optimization
  ===> : Switching off AutoStart
         For restart on a previous wavefunction, please use MOREAD

INFO   : the flag for use of the SHARK integral package has been found!

================================================================================
                                       INPUT FILE
================================================================================
NAME = NO2_OH_3.inp
|  1> ! B3LYP def2-SVP Opt PAL8 FREQ defgrid3 slowconv VeryTightSCF
|  2> *xyz 0 1
|  3>  C        -7.109488        2.747932       -0.251592
|  4>  C        -5.849081        3.386249       -0.249724
|  5>  C        -4.668333        2.673554       -0.150711
|  6>  C        -4.681862        1.266993       -0.044244
|  7>  C        -3.473150        0.507769        0.055206
|  8>  C        -3.493235       -0.853724        0.165407
|  9>  C        -4.723148       -1.596862        0.192636
| 10>  C        -4.760809       -3.022430        0.328266
| 11>  C        -6.025297       -3.653055        0.328396
| 12>  C        -7.206496       -2.942172        0.194489
| 13>  C        -7.200663       -1.539221        0.073016
| 14>  C        -8.408253       -0.781066       -0.038411
| 15>  C        -8.393267        0.581087       -0.141482
| 16>  C        -7.161001        1.320226       -0.146072
| 17>  C        -5.933591        0.577185       -0.038927
| 18>  C        -5.948808       -0.854045        0.075083
| 19>  C        -8.331470        3.531619       -0.358725
| 20>  C        -3.530734       -3.799346        0.489505
| 21>  C        -8.438500        4.870168       -0.471162
| 22>  C        -3.424090       -5.157468        0.379819
| 23>  O        -2.220919       -5.752094        0.600935
| 24>  N        -9.747111        5.494801       -0.568419
| 25>  O        -9.747588        6.716759       -0.669462
| 26>  O       -10.753056        4.795939       -0.545462
| 27>  H        -5.800566        4.473983       -0.328581
| 28>  H        -3.709393        3.198267       -0.153764
| 29>  H        -2.519411        1.042263        0.038974
| 30>  H        -2.542511       -1.382321        0.227734
| 31>  H        -6.087249       -4.735796        0.467796
| 32>  H        -8.163685       -3.471019        0.205140
| 33>  H        -9.361600       -1.316969       -0.037570
| 34>  H        -9.343372        1.108181       -0.222064
| 35>  H        -9.291505        3.013066       -0.350542
| 36>  H        -2.584166       -3.252009        0.736304
| 37>  H        -7.640482        5.608671       -0.503913
| 38>  H        -4.285416       -5.846261        0.102861
| 39>  H        -2.327319       -6.727624        0.435245
| 40> *
| 41> 
| 42>                          ****END OF INPUT****
================================================================================

                       *****************************
                       * Geometry Optimization Run *
                       *****************************

Geometry optimization settings:
Update method            Update   .... BFGS
Choice of coordinates    CoordSys .... Z-matrix Internals
Initial Hessian          InHess   .... Almoef's Model

Convergence Tolerances:
Energy Change            TolE     ....  5.0000e-06 Eh
Max. Gradient            TolMAXG  ....  3.0000e-04 Eh/bohr
RMS Gradient             TolRMSG  ....  1.0000e-04 Eh/bohr
Max. Displacement        TolMAXD  ....  4.0000e-03 bohr
RMS Displacement         TolRMSD  ....  2.0000e-03 bohr
Strict Convergence                ....  False
------------------------------------------------------------------------------
                        ORCA OPTIMIZATION COORDINATE SETUP
------------------------------------------------------------------------------

The optimization will be done in new redundant internal coordinates
Making redundant internal coordinates   ...  (new redundants) done
Evaluating the initial hessian          ...  (Almloef) done
Evaluating the coordinates              ...  done
Calculating the B-matrix                .... done
Calculating the G-matrix                .... done
Diagonalizing the G-matrix              .... done
Small eigenvalue found = 5.102e-03
Small eigenvalue found = 1.102e-02
Small eigenvalue found = 1.506e-02
The first mode is                       ....   97
The number of degrees of freedom        ....  105

    -----------------------------------------------------------------
                    Redundant Internal Coordinates


    -----------------------------------------------------------------
         Definition                    Initial Value    Approx d2E/dq
    -----------------------------------------------------------------
      1. B(C   1,C   0)                  1.4128         0.574541   
      2. B(C   2,C   1)                  1.3827         0.641741   
      3. B(C   3,C   2)                  1.4106         0.579153   
      4. B(C   4,C   3)                  1.4308         0.537755   
      5. B(C   5,C   4)                  1.3661         0.682150   
      6. B(C   6,C   5)                  1.4372         0.525240   
      7. B(C   7,C   6)                  1.4325         0.534480   
      8. B(C   8,C   7)                  1.4130         0.574138   
      9. B(C   9,C   8)                  1.3851         0.636133   
     10. B(C  10,C   9)                  1.4082         0.584363   
     11. B(C  11,C  10)                  1.4302         0.539005   
     12. B(C  12,C  11)                  1.3661         0.682060   
     13. B(C  13,C  12)                  1.4370         0.525814   
     14. B(C  13,C   0)                  1.4325         0.534429   
     15. B(C  14,C   3)                  1.4292         0.540947   
     16. B(C  14,C  13)                  1.4388         0.522267   
     17. B(C  15,C  14)                  1.4358         0.527955   
     18. B(C  15,C  10)                  1.4271         0.545192   
     19. B(C  15,C   6)                  1.4380         0.523794   
     20. B(C  16,C   0)                  1.4556         0.490927   
     21. B(C  17,C   7)                  1.4638         0.476444   
     22. B(C  18,C  16)                  1.3475         0.730318   
     23. B(C  19,C  17)                  1.3667         0.680604   
     24. B(O  20,C  19)                  1.3602         0.624381   
     25. B(N  21,C  18)                  1.4533         0.443487   
     26. B(O  22,N  21)                  1.2261         0.915079   
     27. B(O  23,N  21)                  1.2251         0.918557   
     28. B(H  24,C   1)                  1.0917         0.357901   
     29. B(H  25,C   2)                  1.0931         0.356004   
     30. B(H  26,C   4)                  1.0934         0.355605   
     31. B(H  27,C   5)                  1.0896         0.360662   
     32. B(H  28,C   8)                  1.0934         0.355585   
     33. B(H  29,C   9)                  1.0936         0.355344   
     34. B(H  30,C  11)                  1.0936         0.355308   
     35. B(H  31,C  12)                  1.0895         0.360755   
     36. B(H  32,C  16)                  1.0912         0.358568   
     37. B(H  33,C  17)                  1.1209         0.321425   
     38. B(H  34,C  18)                  1.0878         0.363032   
     39. B(H  35,C  19)                  1.1371         0.302872   
     40. B(H  36,O  20)                  0.9952         0.456877   
     41. A(C   1,C   0,C  16)          120.3827         0.410716   
     42. A(C   1,C   0,C  13)          118.8334         0.416958   
     43. A(C  13,C   0,C  16)          120.7840         0.405489   
     44. A(C   0,C   1,H  24)          119.3225         0.348040   
     45. A(C   2,C   1,H  24)          118.7375         0.354607   
     46. A(C   0,C   1,C   2)          121.9400         0.430826   
     47. A(C   3,C   2,H  25)          119.1600         0.348197   
     48. A(C   1,C   2,C   3)          120.7406         0.431445   
     49. A(C   1,C   2,H  25)          120.0994         0.354288   
     50. A(C   2,C   3,C  14)          119.3357         0.418455   
     51. A(C   2,C   3,C   4)          121.7505         0.418014   
     52. A(C   4,C   3,C  14)          118.9136         0.412971   
     53. A(C   3,C   4,H  26)          118.4526         0.343818   
     54. A(C   5,C   4,H  26)          120.0797         0.357912   
     55. A(C   3,C   4,C   5)          121.4675         0.430431   
     56. A(C   6,C   5,H  27)          119.6540         0.343275   
     57. A(C   4,C   5,C   6)          121.9666         0.428616   
     58. A(C   4,C   5,H  27)          118.3784         0.358772   
     59. A(C   5,C   6,C   7)          122.6051         0.410372   
     60. A(C   7,C   6,C  15)          119.9600         0.410172   
     61. A(C   5,C   6,C  15)          117.4349         0.408907   
     62. A(C   6,C   7,C   8)          117.8833         0.416913   
     63. A(C   6,C   7,C  17)          121.0994         0.403358   
     64. A(C   8,C   7,C  17)          121.0054         0.408492   
     65. A(C   9,C   8,H  28)          118.1787         0.353691   
     66. A(C   7,C   8,H  28)          119.5147         0.347619   
     67. A(C   7,C   8,C   9)          122.2817         0.430093   
     68. A(C  10,C   9,H  29)          119.0933         0.348614   
     69. A(C   8,C   9,H  29)          119.8197         0.353650   
     70. A(C   8,C   9,C  10)          121.0726         0.431459   
     71. A(C  11,C  10,C  15)          119.0954         0.413715   
     72. A(C   9,C  10,C  15)          118.8052         0.419707   
     73. A(C   9,C  10,C  11)          122.0964         0.418854   
     74. A(C  12,C  11,H  30)          119.8816         0.357853   
     75. A(C  10,C  11,C  12)          121.6800         0.430601   
     76. A(C  10,C  11,H  30)          118.4382         0.343904   
     77. A(C  11,C  12,H  31)          118.5808         0.358780   
     78. A(C  11,C  12,C  13)          121.5022         0.428690   
     79. A(C  13,C  12,H  31)          119.9170         0.343353   
     80. A(C   0,C  13,C  12)          122.9374         0.410445   
     81. A(C  12,C  13,C  14)          117.7546         0.408774   
     82. A(C   0,C  13,C  14)          119.3080         0.409953   
     83. A(C  13,C  14,C  15)          120.7735         0.409069   
     84. A(C   3,C  14,C  15)          119.3846         0.411625   
     85. A(C   3,C  14,C  13)          119.8418         0.410835   
     86. A(C  10,C  15,C  14)          119.1932         0.412196   
     87. A(C   6,C  15,C  14)          120.8212         0.409280   
     88. A(C   6,C  15,C  10)          119.9854         0.411618   
     89. A(C  18,C  16,H  32)          113.7540         0.362610   
     90. A(C   0,C  16,H  32)          118.8288         0.339086   
     91. A(C   0,C  16,C  18)          127.4172         0.428668   
     92. A(C  19,C  17,H  33)          115.9125         0.351696   
     93. A(C   7,C  17,H  33)          118.3406         0.331325   
     94. A(C   7,C  17,C  19)          125.7431         0.421033   
     95. A(N  21,C  18,H  34)          111.5163         0.332068   
     96. A(C  16,C  18,H  34)          128.2157         0.363378   
     97. A(C  16,C  18,N  21)          120.2679         0.418213   
     98. A(O  20,C  19,H  35)          116.4116         0.341084   
     99. A(C  17,C  19,H  35)          124.2202         0.348184   
    100. A(C  17,C  19,O  20)          119.3666         0.439085   
    101. A(C  19,O  20,H  36)          107.8718         0.362442   
    102. A(O  22,N  21,O  23)          124.7320         0.487391   
    103. A(C  18,N  21,O  23)          119.5332         0.430012   
    104. A(C  18,N  21,O  22)          115.7348         0.429719   
    105. D(H  24,C   1,C   0,C  16)      0.0545         0.022659   
    106. D(H  24,C   1,C   0,C  13)   -179.9299         0.022659   
    107. D(C   2,C   1,C   0,C  16)   -179.9436         0.022659   
    108. D(C   2,C   1,C   0,C  13)      0.0721         0.022659   
    109. D(H  25,C   2,C   1,C   0)    179.9049         0.028624   
    110. D(C   3,C   2,C   1,H  24)    179.8787         0.028624   
    111. D(C   3,C   2,C   1,C   0)     -0.1232         0.028624   
    112. D(H  25,C   2,C   1,H  24)     -0.0931         0.028624   
    113. D(C  14,C   3,C   2,H  25)    179.9560         0.023041   
    114. D(C  14,C   3,C   2,C   1)     -0.0161         0.023041   
    115. D(C   4,C   3,C   2,H  25)     -0.2232         0.023041   
    116. D(C   4,C   3,C   2,C   1)    179.8047         0.023041   
    117. D(H  26,C   4,C   3,C   2)     -0.5063         0.019754   
    118. D(C   5,C   4,C   3,C   2)    179.6380         0.019754   
    119. D(C   5,C   4,C   3,C  14)     -0.5404         0.019754   
    120. D(H  26,C   4,C   3,C  14)    179.3152         0.019754   
    121. D(H  27,C   5,C   4,H  26)     -0.4675         0.032635   
    122. D(C   6,C   5,C   4,C   3)     -0.2362         0.032635   
    123. D(C   6,C   5,C   4,H  26)    179.9104         0.032635   
    124. D(H  27,C   5,C   4,C   3)    179.3859         0.032635   
    125. D(C  15,C   6,C   5,H  27)   -178.5425         0.018822   
    126. D(C   7,C   6,C   5,H  27)      1.3615         0.018822   
    127. D(C   7,C   6,C   5,C   4)   -179.0211         0.018822   
    128. D(C  15,C   6,C   5,C   4)      1.0749         0.018822   
    129. D(C  17,C   7,C   6,C  15)   -178.1699         0.019508   
    130. D(C  17,C   7,C   6,C   5)      1.9285         0.019508   
    131. D(C   8,C   7,C   6,C  15)      0.5883         0.019508   
    132. D(C   8,C   7,C   6,C   5)   -179.3134         0.019508   
    133. D(H  28,C   8,C   7,C   6)   -177.7252         0.022626   
    134. D(C   9,C   8,C   7,C  17)    179.1826         0.022626   
    135. D(C   9,C   8,C   7,C   6)      0.4232         0.022626   
    136. D(H  28,C   8,C   7,C  17)      1.0342         0.022626   
    137. D(H  29,C   9,C   8,H  28)     -1.5132         0.028093   
    138. D(H  29,C   9,C   8,C   7)   -179.6853         0.028093   
    139. D(C  10,C   9,C   8,H  28)    177.0926         0.028093   
    140. D(C  10,C   9,C   8,C   7)     -1.0795         0.028093   
    141. D(C  15,C  10,C   9,H  29)    179.2959         0.023478   
    142. D(C  15,C  10,C   9,C   8)      0.6801         0.023478   
    143. D(C  11,C  10,C   9,H  29)     -0.0581         0.023478   
    144. D(C  11,C  10,C   9,C   8)   -178.6739         0.023478   
    145. D(H  30,C  11,C  10,C  15)   -179.9212         0.019849   
    146. D(H  30,C  11,C  10,C   9)     -0.5691         0.019849   
    147. D(C  12,C  11,C  10,C  15)     -0.0645         0.019849   
    148. D(C  12,C  11,C  10,C   9)    179.2877         0.019849   
    149. D(H  31,C  12,C  11,H  30)     -0.0378         0.032625   
    150. D(H  31,C  12,C  11,C  10)   -179.8926         0.032625   
    151. D(C  13,C  12,C  11,H  30)    179.9985         0.032625   
    152. D(C  13,C  12,C  11,C  10)      0.1437         0.032625   
    153. D(C  14,C  13,C  12,H  31)   -179.9230         0.018865   
    154. D(C   0,C  13,C  12,H  31)      0.0847         0.018865   
    155. D(C   0,C  13,C  12,C  11)   -179.9521         0.018865   
    156. D(C  14,C  13,C   0,C  16)   -179.8699         0.019504   
    157. D(C  14,C  13,C   0,C   1)      0.1144         0.019504   
    158. D(C  14,C  13,C  12,C  11)      0.0403         0.018865   
    159. D(C  12,C  13,C   0,C  16)      0.1224         0.019504   
    160. D(C  12,C  13,C   0,C   1)   -179.8933         0.019504   
    161. D(C   3,C  14,C  13,C  12)    179.7577         0.018605   
    162. D(C   3,C  14,C  13,C   0)     -0.2497         0.018605   
    163. D(C  15,C  14,C   3,C   4)      0.4356         0.019997   
    164. D(C  15,C  14,C   3,C   2)   -179.7385         0.019997   
    165. D(C  13,C  14,C   3,C   4)   -179.6245         0.019997   
    166. D(C  15,C  14,C  13,C   0)    179.6894         0.018605   
    167. D(C  13,C  14,C   3,C   2)      0.2014         0.019997   
    168. D(C  15,C  14,C  13,C  12)     -0.3032         0.018605   
    169. D(C  10,C  15,C  14,C  13)      0.3817         0.019022   
    170. D(C   6,C  15,C  14,C  13)   -179.5150         0.019022   
    171. D(C   6,C  15,C  14,C   3)      0.4243         0.019022   
    172. D(C  14,C  15,C  10,C  11)     -0.1962         0.020322   
    173. D(C  14,C  15,C  10,C   9)   -179.5699         0.020322   
    174. D(C   6,C  15,C  10,C  11)    179.7014         0.020322   
    175. D(C   6,C  15,C  10,C   9)      0.3277         0.020322   
    176. D(C  14,C  15,C   6,C   7)    178.9364         0.018717   
    177. D(C  14,C  15,C   6,C   5)     -1.1569         0.018717   
    178. D(C  10,C  15,C  14,C   3)   -179.6790         0.019022   
    179. D(C  10,C  15,C   6,C   7)     -0.9595         0.018717   
    180. D(C  10,C  15,C   6,C   5)    178.9472         0.018717   
    181. D(H  32,C  16,C   0,C  13)      0.4126         0.016411   
    182. D(H  32,C  16,C   0,C   1)   -179.5714         0.016411   
    183. D(C  18,C  16,C   0,C  13)   -179.6057         0.016411   
    184. D(C  18,C  16,C   0,C   1)      0.4103         0.016411   
    185. D(H  33,C  17,C   7,C   8)   -165.1103         0.015455   
    186. D(H  33,C  17,C   7,C   6)     13.6091         0.015455   
    187. D(C  19,C  17,C   7,C   8)     14.1512         0.015455   
    188. D(C  19,C  17,C   7,C   6)   -167.1294         0.015455   
    189. D(H  34,C  18,C  16,H  32)   -179.9338         0.037847   
    190. D(H  34,C  18,C  16,C   0)      0.0837         0.037847   
    191. D(N  21,C  18,C  16,H  32)     -0.0150         0.037847   
    192. D(N  21,C  18,C  16,C   0)   -179.9975         0.037847   
    193. D(H  35,C  19,C  17,H  33)   -177.9841         0.032475   
    194. D(H  35,C  19,C  17,C   7)      2.7385         0.032475   
    195. D(O  20,C  19,C  17,H  33)      1.5261         0.032475   
    196. D(O  20,C  19,C  17,C   7)   -177.7513         0.032475   
    197. D(H  36,O  20,C  19,H  35)      2.1475         0.028632   
    198. D(H  36,O  20,C  19,C  17)   -177.4003         0.028632   
    199. D(O  23,N  21,C  18,H  34)   -179.9595         0.015488   
    200. D(O  23,N  21,C  18,C  16)      0.1091         0.015488   
    201. D(O  22,N  21,C  18,H  34)      0.0275         0.015488   
    202. D(O  22,N  21,C  18,C  16)   -179.9039         0.015488   
    -----------------------------------------------------------------

Number of atoms                         .... 37
Number of degrees of freedom            .... 202

         *************************************************************
         *                GEOMETRY OPTIMIZATION CYCLE   1            *
         *************************************************************
---------------------------------
CARTESIAN COORDINATES (ANGSTROEM)
---------------------------------
  C     -7.109488    2.747932   -0.251592
  C     -5.849081    3.386249   -0.249724
  C     -4.668333    2.673554   -0.150711
  C     -4.681862    1.266993   -0.044244
  C     -3.473150    0.507769    0.055206
  C     -3.493235   -0.853724    0.165407
  C     -4.723148   -1.596862    0.192636
  C     -4.760809   -3.022430    0.328266
  C     -6.025297   -3.653055    0.328396
  C     -7.206496   -2.942172    0.194489
  C     -7.200663   -1.539221    0.073016
  C     -8.408253   -0.781066   -0.038411
  C     -8.393267    0.581087   -0.141482
  C     -7.161001    1.320226   -0.146072
  C     -5.933591    0.577185   -0.038927
  C     -5.948808   -0.854045    0.075083
  C     -8.331470    3.531619   -0.358725
  C     -3.530734   -3.799346    0.489505
  C     -8.438500    4.870168   -0.471162
  C     -3.424090   -5.157468    0.379819
  O     -2.220919   -5.752094    0.600935
  N     -9.747111    5.494801   -0.568419
  O     -9.747588    6.716759   -0.669462
  O    -10.753056    4.795939   -0.545462
  H     -5.800566    4.473983   -0.328581
  H     -3.709393    3.198267   -0.153764
  H     -2.519411    1.042263    0.038974
  H     -2.542511   -1.382321    0.227734
  H     -6.087249   -4.735796    0.467796
  H     -8.163685   -3.471019    0.205140
  H     -9.361600   -1.316969   -0.037570
  H     -9.343372    1.108181   -0.222064
  H     -9.291505    3.013066   -0.350542
  H     -2.584166   -3.252009    0.736304
  H     -7.640482    5.608671   -0.503913
  H     -4.285416   -5.846261    0.102861
  H     -2.327319   -6.727624    0.435245

----------------------------
CARTESIAN COORDINATES (A.U.)
----------------------------
  NO LB      ZA    FRAG     MASS         X           Y           Z
   0 C     6.0000    0    12.011  -13.434985    5.192839   -0.475440
   1 C     6.0000    0    12.011  -11.053161    6.399083   -0.471910
   2 C     6.0000    0    12.011   -8.821871    5.052285   -0.284803
   3 C     6.0000    0    12.011   -8.847437    2.394270   -0.083609
   4 C     6.0000    0    12.011   -6.563302    0.959544    0.104324
   5 C     6.0000    0    12.011   -6.601257   -1.613305    0.312574
   6 C     6.0000    0    12.011   -8.925456   -3.017632    0.364029
   7 C     6.0000    0    12.011   -8.996625   -5.711565    0.620333
   8 C     6.0000    0    12.011  -11.386161   -6.903274    0.620579
   9 C     6.0000    0    12.011  -13.618304   -5.559899    0.367531
  10 C     6.0000    0    12.011  -13.607281   -2.908706    0.137980
  11 C     6.0000    0    12.011  -15.889295   -1.476001   -0.072586
  12 C     6.0000    0    12.011  -15.860976    1.098095   -0.267362
  13 C     6.0000    0    12.011  -13.532331    2.494866   -0.276036
  14 C     6.0000    0    12.011  -11.212862    1.090722   -0.073561
  15 C     6.0000    0    12.011  -11.241618   -1.613911    0.141886
  16 C     6.0000    0    12.011  -15.744197    6.673793   -0.677892
  17 C     6.0000    0    12.011   -6.672120   -7.179723    0.925030
  18 C     6.0000    0    12.011  -15.946454    9.203284   -0.890367
  19 C     6.0000    0    12.011   -6.470592   -9.746202    0.717754
  20 O     8.0000    0    15.999   -4.196929  -10.869882    1.135603
  21 N     7.0000    0    14.007  -18.419370   10.383669   -1.074156
  22 O     8.0000    0    15.999  -18.420272   12.692835   -1.265100
  23 O     8.0000    0    15.999  -20.320331    9.063011   -1.030774
  24 H     1.0000    0     1.008  -10.961481    8.454603   -0.620928
  25 H     1.0000    0     1.008   -7.009737    6.043849   -0.290572
  26 H     1.0000    0     1.008   -4.760997    1.969592    0.073650
  27 H     1.0000    0     1.008   -4.804649   -2.612208    0.430355
  28 H     1.0000    0     1.008  -11.503234   -8.949357    0.884006
  29 H     1.0000    0     1.008  -15.427129   -6.559275    0.387658
  30 H     1.0000    0     1.008  -17.690860   -2.488711   -0.070997
  31 H     1.0000    0     1.008  -17.656414    2.094159   -0.419640
  32 H     1.0000    0     1.008  -17.558400    5.693870   -0.662428
  33 H     1.0000    0     1.008   -4.883366   -6.145406    1.391413
  34 H     1.0000    0     1.008  -14.438419   10.598852   -0.952258
  35 H     1.0000    0     1.008   -8.098263  -11.047832    0.194379
  36 H     1.0000    0     1.008   -4.397996  -12.713367    0.822494

--------------------------------
INTERNAL COORDINATES (ANGSTROEM)
--------------------------------
 C      0   0   0     0.000000000000     0.00000000     0.00000000
 C      1   0   0     1.412826205717     0.00000000     0.00000000
 C      2   1   0     1.382716014479   121.94003480     0.00000000
 C      3   2   1     1.410649532184   120.74059900   359.87678674
 C      4   3   2     1.430837546202   121.75049191   179.80466137
 C      5   4   3     1.366093282567   121.46751460   179.63803454
 C      6   5   4     1.437247888520   121.96660680   359.76378354
 C      7   6   5     1.432500600504   122.60508014   180.97890000
 C      8   7   6     1.413017271540   117.88331721   180.68662561
 C      9   8   7     1.385105339654   122.28169517     0.42324561
 C     10   9   8     1.408212065713   121.07257743   358.92051077
 C     11  10   9     1.430205785352   122.09635695   181.32610236
 C     12  11  10     1.366129205692   121.68002626   179.28770919
 C      1   2   3     1.432526607783   118.83336459     0.07207346
 C      4   3   2     1.429226656900   119.33569744     0.00000000
 C     11  10   9     1.427098932972   118.80518110     0.68008737
 C      1   2   3     1.455638279925   120.38266503   180.05642601
 C      8   7   6     1.463789941147   121.09939970     1.92845171
 C     17   1   2     1.347520287517   127.41724329     0.41030526
 C     18   8   7     1.366711135616   125.74308839   192.87058539
 O     20  18   8     1.360181171967   119.36656004   182.24870308
 N     19  17   1     1.453302466130   120.26794313   180.00250563
 O     22  19  17     1.226128569581   115.73476250   180.09607817
 O     22  19  17     1.225096103136   119.53318845     0.10907604
 H      2   1   3     1.091667250782   119.32250388   179.99802652
 H      3   2   1     1.093114347531   120.09943403   179.90492099
 H      5   4   3     1.093419130060   118.45264982   359.49372357
 H      6   5   4     1.089575865883   118.37836871   179.38586790
 H      9   8   7     1.093434261117   119.51467472   182.27478402
 H     10   9   8     1.093619392170   119.81965386   180.31465750
 H     12  11  10     1.093646759744   118.43824484   359.43093150
 H     13  12  11     1.089504958495   118.58083865   180.10741375
 H     17   1   2     1.091160564043   118.82879089   180.42858290
 H     18   8   7     1.120927525130   118.34059122    13.60909798
 H     19  17   1     1.087792276739   128.21573313     0.08365910
 H     20  18   8     1.137112135583   124.22015797     2.73851726
 H     21  20  18     0.995204962307   107.87177232   182.59967850

---------------------------
INTERNAL COORDINATES (A.U.)
---------------------------
 C      0   0   0     0.000000000000     0.00000000     0.00000000
 C      1   0   0     2.669854603633     0.00000000     0.00000000
 C      2   1   0     2.612954588353   121.94003480     0.00000000
 C      3   2   1     2.665741286772   120.74059900   359.87678674
 C      4   3   2     2.703891104453   121.75049191   179.80466137
 C      5   4   3     2.581542177441   121.46751460   179.63803454
 C      6   5   4     2.716004895859   121.96660680   359.76378354
 C      7   6   5     2.707033821631   122.60508014   180.97890000
 C      8   7   6     2.670215665710   117.88331721   180.68662561
 C      9   8   7     2.617469758579   122.28169517     0.42324561
 C     10   9   8     2.661135142681   121.07257743   358.92051077
 C     11  10   9     2.702697249465   122.09635695   181.32610236
 C     12  11  10     2.581610062310   121.68002626   179.28770919
 C      1   2   3     2.707082968264   118.83336459     0.07207346
 C      4   3   2     2.700846964841   119.33569744     0.00000000
 C     11  10   9     2.696826149328   118.80518110     0.68008737
 C      1   2   3     2.750757699110   120.38266503   180.05642601
 C      8   7   6     2.766162106356   121.09939970     1.92845171
 C     17   1   2     2.546444303310   127.41724329     0.41030526
 C     18   8   7     2.582709750494   125.74308839   192.87058539
 O     20  18   8     2.570369907533   119.36656004   182.24870308
 N     19  17   1     2.746343650738   120.26794313   180.00250563
 O     22  19  17     2.317047201484   115.73476250   180.09607817
 O     22  19  17     2.315096122660   119.53318845     0.10907604
 H      2   1   3     2.062952133349   119.32250388   179.99802652
 H      3   2   1     2.065686749894   120.09943403   179.90492099
 H      5   4   3     2.066262705404   118.45264982   359.49372357
 H      6   5   4     2.058999988648   118.37836871   179.38586790
 H      9   8   7     2.066291298958   119.51467472   182.27478402
 H     10   9   8     2.066641145947   119.81965386   180.31465750
 H     12  11  10     2.066692863167   118.43824484   359.43093150
 H     13  12  11     2.058865993105   118.58083865   180.10741375
 H     17   1   2     2.061994634177   118.82879089   180.42858290
 H     18   8   7     2.118246038470   118.34059122    13.60909798
 H     19  17   1     2.055629493632   128.21573313     0.08365910
 H     20  18   8     2.148830519809   124.22015797     2.73851726
 H     21  20  18     1.880664825879   107.87177232   182.59967850

---------------------
BASIS SET INFORMATION
---------------------
There are 4 groups of distinct atoms

 Group   1 Type C   : 7s4p1d contracted to 3s2p1d pattern {511/31/1}
 Group   2 Type O   : 7s4p1d contracted to 3s2p1d pattern {511/31/1}
 Group   3 Type N   : 7s4p1d contracted to 3s2p1d pattern {511/31/1}
 Group   4 Type H   : 4s1p contracted to 2s1p pattern {31/1}

Atom   0C    basis set group =>   1
Atom   1C    basis set group =>   1
Atom   2C    basis set group =>   1
Atom   3C    basis set group =>   1
Atom   4C    basis set group =>   1
Atom   5C    basis set group =>   1
Atom   6C    basis set group =>   1
Atom   7C    basis set group =>   1
Atom   8C    basis set group =>   1
Atom   9C    basis set group =>   1
Atom  10C    basis set group =>   1
Atom  11C    basis set group =>   1
Atom  12C    basis set group =>   1
Atom  13C    basis set group =>   1
Atom  14C    basis set group =>   1
Atom  15C    basis set group =>   1
Atom  16C    basis set group =>   1
Atom  17C    basis set group =>   1
Atom  18C    basis set group =>   1
Atom  19C    basis set group =>   1
Atom  20O    basis set group =>   2
Atom  21N    basis set group =>   3
Atom  22O    basis set group =>   2
Atom  23O    basis set group =>   2
Atom  24H    basis set group =>   4
Atom  25H    basis set group =>   4
Atom  26H    basis set group =>   4
Atom  27H    basis set group =>   4
Atom  28H    basis set group =>   4
Atom  29H    basis set group =>   4
Atom  30H    basis set group =>   4
Atom  31H    basis set group =>   4
Atom  32H    basis set group =>   4
Atom  33H    basis set group =>   4
Atom  34H    basis set group =>   4
Atom  35H    basis set group =>   4
Atom  36H    basis set group =>   4
---------------------------------
AUXILIARY/J BASIS SET INFORMATION
---------------------------------
There are 4 groups of distinct atoms

 Group   1 Type C   : 12s5p4d2f1g contracted to 6s4p3d1f1g pattern {711111/2111/211/2/1}
 Group   2 Type O   : 12s5p4d2f1g contracted to 6s4p3d1f1g pattern {711111/2111/211/2/1}
 Group   3 Type N   : 12s5p4d2f1g contracted to 6s4p3d1f1g pattern {711111/2111/211/2/1}
 Group   4 Type H   : 5s2p1d contracted to 3s1p1d pattern {311/2/1}

Atom   0C    basis set group =>   1
Atom   1C    basis set group =>   1
Atom   2C    basis set group =>   1
Atom   3C    basis set group =>   1
Atom   4C    basis set group =>   1
Atom   5C    basis set group =>   1
Atom   6C    basis set group =>   1
Atom   7C    basis set group =>   1
Atom   8C    basis set group =>   1
Atom   9C    basis set group =>   1
Atom  10C    basis set group =>   1
Atom  11C    basis set group =>   1
Atom  12C    basis set group =>   1
Atom  13C    basis set group =>   1
Atom  14C    basis set group =>   1
Atom  15C    basis set group =>   1
Atom  16C    basis set group =>   1
Atom  17C    basis set group =>   1
Atom  18C    basis set group =>   1
Atom  19C    basis set group =>   1
Atom  20O    basis set group =>   2
Atom  21N    basis set group =>   3
Atom  22O    basis set group =>   2
Atom  23O    basis set group =>   2
Atom  24H    basis set group =>   4
Atom  25H    basis set group =>   4
Atom  26H    basis set group =>   4
Atom  27H    basis set group =>   4
Atom  28H    basis set group =>   4
Atom  29H    basis set group =>   4
Atom  30H    basis set group =>   4
Atom  31H    basis set group =>   4
Atom  32H    basis set group =>   4
Atom  33H    basis set group =>   4
Atom  34H    basis set group =>   4
Atom  35H    basis set group =>   4
Atom  36H    basis set group =>   4


           ************************************************************
           *        Program running with 8 parallel MPI-processes     *
           *              working on a common directory               *
           ************************************************************
------------------------------------------------------------------------------
                           ORCA GTO INTEGRAL CALCULATION
                           -- RI-GTO INTEGRALS CHOSEN --
------------------------------------------------------------------------------
------------------------------------------------------------------------------
                   ___                                                        
                  /   \      - P O W E R E D   B Y -                         
                 /     \                                                     
                 |  |  |   _    _      __       _____    __    __             
                 |  |  |  | |  | |    /  \     |  _  \  |  |  /  |          
                  \  \/   | |  | |   /    \    | | | |  |  | /  /          
                 / \  \   | |__| |  /  /\  \   | |_| |  |  |/  /          
                |  |  |   |  __  | /  /__\  \  |    /   |      \           
                |  |  |   | |  | | |   __   |  |    \   |  |\   \          
                \     /   | |  | | |  |  |  |  | |\  \  |  | \   \       
                 \___/    |_|  |_| |__|  |__|  |_| \__\ |__|  \__/        
                                                                              
                      - O R C A' S   B I G   F R I E N D -                    
                                      &                                       
                       - I N T E G R A L  F E E D E R -                       
                                                                              
 v1 FN, 2020, v2 2021                                                         
------------------------------------------------------------------------------


Reading SHARK input file NO2_OH_3.SHARKINP.tmp ... ok
----------------------
SHARK INTEGRAL PACKAGE
----------------------

Number of atoms                             ...     37
Number of basis functions                   ...    401
Number of shells                            ...    183
Maximum angular momentum                    ...      2
Integral batch strategy                     ... SHARK/LIBINT Hybrid
RI-J (if used) integral strategy            ... SPLIT-RIJ (Revised 2003 algorithm where possible)
Printlevel                                  ...      1
Contraction scheme used                     ... SEGMENTED contraction
Coulomb Range Separation                    ... NOT USED
Exchange Range Separation                   ... NOT USED
Finite Nucleus Model                        ... NOT USED
Auxiliary Coulomb fitting basis             ... AVAILABLE
   # of basis functions in Aux-J            ...   1319
   # of shells in Aux-J                     ...    425
   Maximum angular momentum in Aux-J        ...      4
Auxiliary J/K fitting basis                 ... NOT available
Auxiliary Correlation fitting basis         ... NOT available
Auxiliary 'external' fitting basis          ... NOT available
Integral threshold                          ...     1.000000e-12
Primitive cut-off                           ...     1.000000e-14
Primitive pair pre-selection threshold      ...     1.000000e-14

Calculating pre-screening integrals         ... done (  0.0 sec) Dimension = 183
Organizing shell pair data                  ... done (  7.0 sec)
Shell pair information
Total number of shell pairs                 ...     16836
Shell pairs after pre-screening             ...     12248
Total number of primitive shell pairs       ...     62832
Primitive shell pairs kept                  ...     29505
          la=0 lb=0:   3553 shell pairs
          la=1 lb=0:   4478 shell pairs
          la=1 lb=1:   1453 shell pairs
          la=2 lb=0:   1565 shell pairs
          la=2 lb=1:   1010 shell pairs
          la=2 lb=2:    189 shell pairs

Calculating one electron integrals          ... done (  0.0 sec)
Calculating RI/J V-Matrix + Cholesky decomp.... done (  3.9 sec)
Calculating Nuclear repulsion               ... done (  0.1 sec) ENN=   1789.254475610784 Eh

SHARK setup successfully completed in  13.5 seconds

Maximum memory used throughout the entire GTOINT-calculation: 22.5 MB


           ************************************************************
           *        Program running with 8 parallel MPI-processes     *
           *              working on a common directory               *
           ************************************************************
-------------------------------------------------------------------------------
                                 ORCA SCF
-------------------------------------------------------------------------------

------------
SCF SETTINGS
------------
Hamiltonian:
 Density Functional     Method          .... DFT(GTOs)
 Exchange Functional    Exchange        .... B88
   X-Alpha parameter    XAlpha          ....  0.666667
   Becke's b parameter  XBeta           ....  0.004200
 Correlation Functional Correlation     .... LYP
 LDA part of GGA corr.  LDAOpt          .... VWN-5
 Gradients option       PostSCFGGA      .... off
 Hybrid DFT is turned on
   Fraction HF Exchange ScalHFX         ....  0.200000
   Scaling of DF-GGA-X  ScalDFX         ....  0.720000
   Scaling of DF-GGA-C  ScalDFC         ....  0.810000
   Scaling of DF-LDA-C  ScalLDAC        ....  1.000000
   Perturbative correction              ....  0.000000
   Density functional embedding theory  .... OFF
   NL short-range parameter             ....  4.800000
 RI-approximation to the Coulomb term is turned on
   Number of AuxJ basis functions       .... 1319
   RIJ-COSX (HFX calculated with COS-X)).... on


General Settings:
 Integral files         IntName         .... NO2_OH_3
 Hartree-Fock type      HFTyp           .... RHF
 Total Charge           Charge          ....    0
 Multiplicity           Mult            ....    1
 Number of Electrons    NEL             ....  164
 Basis Dimension        Dim             ....  401
 Nuclear Repulsion      ENuc            ....   1789.2544756108 Eh

Convergence Acceleration:
 DIIS                   CNVDIIS         .... on
   Start iteration      DIISMaxIt       ....     0
   Startup error        DIISStart       ....  0.200000
   # of expansion vecs  DIISMaxEq       ....     5
   Bias factor          DIISBfac        ....   1.050
   Max. coefficient     DIISMaxC        ....  10.000
 Trust-Rad. Augm. Hess. CNVTRAH         .... auto
   Auto Start mean grad. ratio tolernc. ....  1.125000
   Auto Start start iteration           ....    20
   Auto Start num. interpolation iter.  ....    10
   Max. Number of Micro iterations      ....    16
   Max. Number of Macro iterations      .... Maxiter - #DIIS iter
   Number of Davidson start vectors     ....     2
   Converg. threshold I  (grad. norm)   ....   2.000e-06
   Converg. threshold II (energy diff.) ....   1.000e-09
   Grad. Scal. Fac. for Micro threshold ....   0.100
   Minimum threshold for Micro iter.    ....   0.010
   NR start threshold (gradient norm)   ....   0.001
   Initial trust radius                 ....   0.400
   Minimum AH scaling param. (alpha)    ....   1.000
   Maximum AH scaling param. (alpha)    .... 1000.000
   Orbital update algorithm             .... Taylor
   White noise on init. David. guess    .... on
   Maximum white noise                  ....   0.010
   Quad. conv. algorithm                .... NR
 SOSCF                  CNVSOSCF        .... on
   Start iteration      SOSCFMaxIt      ....   150
   Startup grad/error   SOSCFStart      ....  0.001000
 Level Shifting         CNVShift        .... on
   Level shift para.    LevelShift      ....    0.2500
   Turn off err/grad.   ShiftErr        ....    0.0000
 Zerner damping         CNVZerner       .... off
 Static damping         CNVDamp         .... on
   Fraction old density DampFac         ....    0.8500
   Max. Damping (<1)    DampMax         ....    0.9800
   Min. Damping (>=0)   DampMin         ....    0.0000
   Turn off err/grad.   DampErr         ....    0.0300
 Fernandez-Rico         CNVRico         .... off

SCF Procedure:
 Maximum # iterations   MaxIter         ....   125
 SCF integral mode      SCFMode         .... Direct
   Integral package                     .... SHARK and LIBINT hybrid scheme
 Reset frequency        DirectResetFreq ....    20
 Integral Threshold     Thresh          ....  1.000e-12 Eh
 Primitive CutOff       TCut            ....  1.000e-14 Eh

Convergence Tolerance:
 Convergence Check Mode ConvCheckMode   .... Total+1el-Energy
 Convergence forced     ConvForced      .... 0
 Energy Change          TolE            ....  1.000e-09 Eh
 1-El. energy change                    ....  1.000e-06 Eh
 Orbital Gradient       TolG            ....  2.000e-06
 Orbital Rotation angle TolX            ....  2.000e-06
 DIIS Error             TolErr          ....  1.000e-08


Diagonalization of the overlap matrix:
Smallest eigenvalue                        ... 2.000e-04
Time for diagonalization                   ...    0.026 sec
Threshold for overlap eigenvalues          ... 1.000e-08
Number of eigenvalues below threshold      ... 0
Time for construction of square roots      ...    0.018 sec
Total time needed                          ...    0.046 sec

Time for model grid setup =    0.733 sec

------------------------------
INITIAL GUESS: MODEL POTENTIAL
------------------------------
Loading Hartree-Fock densities                     ... done
Calculating cut-offs                               ... done
Initializing the effective Hamiltonian             ... done
Setting up the integral package (SHARK)            ... done
Starting the Coulomb interaction                   ... done (   0.2 sec)
Reading the grid                                   ... done
Mapping shells                                     ... done
Starting the XC term evaluation                    ... done (   0.1 sec)
  promolecular density results
     # of electrons  =    163.992218939
     EX              =   -137.847786298
     EC              =     -5.634363563
     EX+EC           =   -143.482149862
Transforming the Hamiltonian                       ... done (   0.0 sec)
Diagonalizing the Hamiltonian                      ... done (   0.0 sec)
Back transforming the eigenvectors                 ... done (   0.0 sec)
Now organizing SCF variables                       ... done
                      ------------------
                      INITIAL GUESS DONE (   1.0 sec)
                      ------------------
-------------------
DFT GRID GENERATION
-------------------

General Integration Accuracy     IntAcc      ... 4.959
Radial Grid Type                 RadialGrid  ... OptM3 with GC (2021)
Angular Grid (max. ang.)         AngularGrid ... 6 (Lebedev-590)
Angular grid pruning method      GridPruning ... 4 (adaptive)
Weight generation scheme         WeightScheme... Becke
Basis function cutoff            BFCut       ... 1.0000e-12
Integration weight cutoff        WCut        ... 1.0000e-14
Angular grids for H and He will be reduced by one unit
Partially contracted basis set               ... off
Rotationally invariant grid construction     ... off

Total number of grid points                  ...   450983
Total number of batches                      ...     7068
Average number of points per batch           ...       63
Average number of grid points per atom       ...    12189
Time for grid setup =   10.803 sec

--------------------
COSX GRID GENERATION
--------------------

GRIDX 1
-------
General Integration Accuracy     IntAcc      ... 4.020
Radial Grid Type                 RadialGrid  ... OptM3 with GC (2021)
Angular Grid (max. ang.)         AngularGrid ... 2 (Lebedev-110)
Angular grid pruning method      GridPruning ... 4 (adaptive)
Weight generation scheme         WeightScheme... Becke
Basis function cutoff            BFCut       ... 1.0000e-12
Integration weight cutoff        WCut        ... 1.0000e-14
Angular grids for H and He will be reduced by one unit
Partially contracted basis set               ... on
Rotationally invariant grid construction     ... off

Total number of grid points                  ...    51814
Total number of batches                      ...      830
Average number of points per batch           ...       62
Average number of grid points per atom       ...     1400
UseSFitting                                  ... on

GRIDX 2
-------
General Integration Accuracy     IntAcc      ... 4.338
Radial Grid Type                 RadialGrid  ... OptM3 with GC (2021)
Angular Grid (max. ang.)         AngularGrid ... 3 (Lebedev-194)
Angular grid pruning method      GridPruning ... 4 (adaptive)
Weight generation scheme         WeightScheme... Becke
Basis function cutoff            BFCut       ... 1.0000e-12
Integration weight cutoff        WCut        ... 1.0000e-14
Angular grids for H and He will be reduced by one unit
Partially contracted basis set               ... on
Rotationally invariant grid construction     ... off

Total number of grid points                  ...   113821
Total number of batches                      ...     1798
Average number of points per batch           ...       63
Average number of grid points per atom       ...     3076
UseSFitting                                  ... on

GRIDX 3
-------
General Integration Accuracy     IntAcc      ... 4.871
Radial Grid Type                 RadialGrid  ... OptM3 with GC (2021)
Angular Grid (max. ang.)         AngularGrid ... 4 (Lebedev-302)
Angular grid pruning method      GridPruning ... 4 (adaptive)
Weight generation scheme         WeightScheme... Becke
Basis function cutoff            BFCut       ... 1.0000e-12
Integration weight cutoff        WCut        ... 1.0000e-14
Angular grids for H and He will be reduced by one unit
Partially contracted basis set               ... on
Rotationally invariant grid construction     ... off

Total number of grid points                  ...   209700
Total number of batches                      ...     3296
Average number of points per batch           ...       63
Average number of grid points per atom       ...     5668
UseSFitting                                  ... on

Time for X-Grid setup             =    9.205 sec

--------------
SCF ITERATIONS
--------------
ITER       Energy         Delta-E        Max-DP      RMS-DP      [F,P]     Damp
               ***  Starting incremental Fock matrix formation  ***
  0  -1048.4528042657   0.000000000000 0.04596155  0.00104817  0.2504454 0.8500
  1  -1048.5770687661  -0.124264500392 0.03866973  0.00094487  0.1630186 0.8500
                               ***Turning on DIIS***
  2  -1048.6570003714  -0.079931605257 0.02453671  0.00073099  0.1083940 0.8500
  3  -1048.7082458312  -0.051245459841 0.01376744  0.00048930  0.0731645 0.8500
  4  -1048.7459389766  -0.037693145386 0.01194536  0.00037223  0.0560166 0.8500
  5  -1048.7750307702  -0.029091793586 0.01051937  0.00030193  0.0457375 0.8500
  6  -1048.7986108260  -0.023580055822 0.00924273  0.00025199  0.0382344 0.8500
  7  -1048.8181433984  -0.019532572338 0.00810285  0.00021349  0.0322615 0.8500
  8  -1048.8345345380  -0.016391139624 0.04685305  0.00121631  0.0270624 0.0000
  9  -1048.9227140060  -0.088179467993 0.00474738  0.00005508  0.0048339 0.0000
 10  -1048.9227643384  -0.000050332376 0.00212577  0.00002004  0.0037090 0.0000
                      *** Initiating the SOSCF procedure ***
                           *** Shutting down DIIS ***
                      *** Re-Reading the Fockian *** 
                      *** Removing any level shift *** 
ITER      Energy       Delta-E        Grad      Rot      Max-DP    RMS-DP
 11  -1048.92279969  -0.0000353543  0.000121  0.000121  0.000496  0.000008
               *** Restarting incremental Fock matrix formation ***
 12  -1048.92278678   0.0000129153  0.000117  0.001150  0.000605  0.000008
 13  -1048.92278679  -0.0000000127  0.000225  0.000331  0.000442  0.000005
 14  -1048.92278772  -0.0000009296  0.000024  0.000286  0.000170  0.000002
 15  -1048.92278769   0.0000000316  0.000055  0.000096  0.000155  0.000001
 16  -1048.92278775  -0.0000000611  0.000019  0.000172  0.000091  0.000001
 17  -1048.92278774   0.0000000108  0.000019  0.000058  0.000072  0.000001
 18  -1048.92278776  -0.0000000191  0.000004  0.000063  0.000018  0.000000
 19  -1048.92278776   0.0000000004  0.000008  0.000036  0.000009  0.000000
 20  -1048.92278776  -0.0000000015  0.000001  0.000008  0.000006  0.000000
 21  -1048.92278776   0.0000000008  0.000001  0.000004  0.000004  0.000000
                  ***Gradient check signals convergence***
              ***Rediagonalizing the Fockian in SOSCF/NRSCF***

               *****************************************************
               *                     SUCCESS                       *
               *           SCF CONVERGED AFTER  22 CYCLES          *
               *****************************************************

Old exchange energy                            =    -27.841844260 Eh
New exchange energy                            =    -27.841835364 Eh
Exchange energy change after final integration =      0.000008896 Eh
Total energy after final integration           =  -1048.922778862 Eh
Final COS-X integration done in                =    13.473 sec

----------------
TOTAL SCF ENERGY
----------------

Total Energy       :        -1048.92277886 Eh          -28542.63989 eV

Components:
Nuclear Repulsion  :         1789.25447561 Eh           48688.08954 eV
Electronic Energy  :        -2838.17725447 Eh          -77230.72943 eV
One Electron Energy:        -4978.03207538 Eh         -135459.13938 eV
Two Electron Energy:         2139.85482091 Eh           58228.40995 eV
Max COSX asymmetry :            0.00000045 Eh               0.00001 eV

Virial components:
Potential Energy   :        -2087.71294338 Eh          -56809.55733 eV
Kinetic Energy     :         1038.79016452 Eh           28266.91744 eV
Virial Ratio       :            2.00975425


DFT components:
N(Alpha)           :       82.000004550243 electrons
N(Beta)            :       82.000004550243 electrons
N(Total)           :      164.000009100486 electrons
E(X)               :     -110.741857238277 Eh       
E(C)               :       -6.626139301441 Eh       
E(XC)              :     -117.367996539719 Eh       
DFET-embed. en.    :        0.000000000000 Eh       

---------------
SCF CONVERGENCE
---------------

  Last Energy change         ...   -5.4820e-10  Tolerance :   1.0000e-09
  Last MAX-Density change    ...    3.5527e-15  Tolerance :   1.0000e-08
  Last RMS-Density change    ...    4.1783e-17  Tolerance :   1.0000e-09
  Last Orbital Gradient      ...    2.4230e-07  Tolerance :   2.0000e-06
  Last Orbital Rotation      ...    2.0842e-06  Tolerance :   2.0000e-06

             **** THE GBW FILE WAS UPDATED (NO2_OH_3.gbw) ****
             **** DENSITY NO2_OH_3.scfp WAS UPDATED ****
             **** ENERGY FILE WAS UPDATED (NO2_OH_3.en.tmp) ****
             **** THE GBW FILE WAS UPDATED (NO2_OH_3.gbw) ****
             **** DENSITY NO2_OH_3.scfp WAS UPDATED ****
----------------
ORBITAL ENERGIES
----------------

  NO   OCC          E(Eh)            E(eV) 
   0   2.0000     -19.187925      -522.1300 
   1   2.0000     -19.141871      -520.8768 
   2   2.0000     -19.141540      -520.8678 
   3   2.0000     -14.540304      -395.6618 
   4   2.0000     -10.269628      -279.4508 
   5   2.0000     -10.232871      -278.4506 
   6   2.0000     -10.221956      -278.1536 
   7   2.0000     -10.217404      -278.0297 
   8   2.0000     -10.217062      -278.0204 
   9   2.0000     -10.215256      -277.9712 
  10   2.0000     -10.211627      -277.8725 
  11   2.0000     -10.210853      -277.8514 
  12   2.0000     -10.209862      -277.8245 
  13   2.0000     -10.208878      -277.7977 
  14   2.0000     -10.206260      -277.7265 
  15   2.0000     -10.204418      -277.6763 
  16   2.0000     -10.204090      -277.6674 
  17   2.0000     -10.203325      -277.6466 
  18   2.0000     -10.203128      -277.6412 
  19   2.0000     -10.202182      -277.6155 
  20   2.0000     -10.201565      -277.5987 
  21   2.0000     -10.201076      -277.5854 
  22   2.0000     -10.200431      -277.5678 
  23   2.0000     -10.197748      -277.4948 
  24   2.0000      -1.200714       -32.6731 
  25   2.0000      -1.063014       -28.9261 
  26   2.0000      -1.026299       -27.9270 
  27   2.0000      -0.896862       -24.4048 
  28   2.0000      -0.862928       -23.4815 
  29   2.0000      -0.837544       -22.7907 
  30   2.0000      -0.829661       -22.5762 
  31   2.0000      -0.804570       -21.8935 
  32   2.0000      -0.783813       -21.3286 
  33   2.0000      -0.760987       -20.7075 
  34   2.0000      -0.750579       -20.4243 
  35   2.0000      -0.733215       -19.9518 
  36   2.0000      -0.718738       -19.5579 
  37   2.0000      -0.682411       -18.5694 
  38   2.0000      -0.642671       -17.4880 
  39   2.0000      -0.638180       -17.3658 
  40   2.0000      -0.626335       -17.0434 
  41   2.0000      -0.614264       -16.7150 
  42   2.0000      -0.582873       -15.8608 
  43   2.0000      -0.571416       -15.5490 
  44   2.0000      -0.559378       -15.2214 
  45   2.0000      -0.541360       -14.7312 
  46   2.0000      -0.536568       -14.6008 
  47   2.0000      -0.529080       -14.3970 
  48   2.0000      -0.521034       -14.1781 
  49   2.0000      -0.516354       -14.0507 
  50   2.0000      -0.512297       -13.9403 
  51   2.0000      -0.503357       -13.6970 
  52   2.0000      -0.482240       -13.1224 
  53   2.0000      -0.476973       -12.9791 
  54   2.0000      -0.462609       -12.5882 
  55   2.0000      -0.454044       -12.3552 
  56   2.0000      -0.450050       -12.2465 
  57   2.0000      -0.433858       -11.8059 
  58   2.0000      -0.431952       -11.7540 
  59   2.0000      -0.426015       -11.5924 
  60   2.0000      -0.417915       -11.3721 
  61   2.0000      -0.412307       -11.2194 
  62   2.0000      -0.408340       -11.1115 
  63   2.0000      -0.404205       -10.9990 
  64   2.0000      -0.401400       -10.9227 
  65   2.0000      -0.388041       -10.5591 
  66   2.0000      -0.384218       -10.4551 
  67   2.0000      -0.379774       -10.3342 
  68   2.0000      -0.362199        -9.8559 
  69   2.0000      -0.357995        -9.7416 
  70   2.0000      -0.344354        -9.3703 
  71   2.0000      -0.337976        -9.1968 
  72   2.0000      -0.331653        -9.0247 
  73   2.0000      -0.303150        -8.2491 
  74   2.0000      -0.293389        -7.9835 
  75   2.0000      -0.293361        -7.9828 
  76   2.0000      -0.289885        -7.8882 
  77   2.0000      -0.275231        -7.4894 
  78   2.0000      -0.268988        -7.3195 
  79   2.0000      -0.249631        -6.7928 
  80   2.0000      -0.240057        -6.5323 
  81   2.0000      -0.198593        -5.4040 
  82   0.0000      -0.099866        -2.7175 
  83   0.0000      -0.062188        -1.6922 
  84   0.0000      -0.045249        -1.2313 
  85   0.0000      -0.024783        -0.6744 
  86   0.0000      -0.013080        -0.3559 
  87   0.0000       0.014637         0.3983 
  88   0.0000       0.019435         0.5289 
  89   0.0000       0.024988         0.6800 
  90   0.0000       0.056446         1.5360 
  91   0.0000       0.060021         1.6332 
  92   0.0000       0.067842         1.8461 
  93   0.0000       0.075466         2.0535 
  94   0.0000       0.076909         2.0928 
  95   0.0000       0.091245         2.4829 
  96   0.0000       0.097601         2.6559 
  97   0.0000       0.098760         2.6874 
  98   0.0000       0.119312         3.2466 
  99   0.0000       0.123454         3.3594 
 100   0.0000       0.147318         4.0087 
 101   0.0000       0.151300         4.1171 
 102   0.0000       0.174096         4.7374 
 103   0.0000       0.180736         4.9181 
 104   0.0000       0.194146         5.2830 
 105   0.0000       0.202024         5.4974 
 106   0.0000       0.214809         5.8452 
 107   0.0000       0.224431         6.1071 
 108   0.0000       0.225534         6.1371 
 109   0.0000       0.228149         6.2083 
 110   0.0000       0.243324         6.6212 
 111   0.0000       0.247403         6.7322 
 112   0.0000       0.255524         6.9532 
 113   0.0000       0.258636         7.0378 
 114   0.0000       0.267433         7.2772 
 115   0.0000       0.272367         7.4115 
 116   0.0000       0.290133         7.8949 
 117   0.0000       0.290368         7.9013 
 118   0.0000       0.304892         8.2965 
 119   0.0000       0.311895         8.4871 
 120   0.0000       0.315582         8.5874 
 121   0.0000       0.318236         8.6596 
 122   0.0000       0.326120         8.8742 
 123   0.0000       0.332891         9.0584 
 124   0.0000       0.333309         9.0698 
 125   0.0000       0.339838         9.2475 
 126   0.0000       0.344540         9.3754 
 127   0.0000       0.350752         9.5445 
 128   0.0000       0.362124         9.8539 
 129   0.0000       0.369670        10.0592 
 130   0.0000       0.382618        10.4116 
 131   0.0000       0.398012        10.8305 
 132   0.0000       0.401285        10.9195 
 133   0.0000       0.404569        11.0089 
 134   0.0000       0.414496        11.2790 
 135   0.0000       0.428557        11.6616 
 136   0.0000       0.431307        11.7365 
 137   0.0000       0.436607        11.8807 
 138   0.0000       0.446177        12.1411 
 139   0.0000       0.448130        12.1942 
 140   0.0000       0.452515        12.3136 
 141   0.0000       0.462724        12.5913 
 142   0.0000       0.465584        12.6692 
 143   0.0000       0.468637        12.7522 
 144   0.0000       0.472378        12.8541 
 145   0.0000       0.474116        12.9014 
 146   0.0000       0.481756        13.1092 
 147   0.0000       0.483542        13.1578 
 148   0.0000       0.491926        13.3860 
 149   0.0000       0.497614        13.5408 
 150   0.0000       0.500112        13.6087 
 151   0.0000       0.507770        13.8171 
 152   0.0000       0.518775        14.1166 
 153   0.0000       0.529161        14.3992 
 154   0.0000       0.530122        14.4254 
 155   0.0000       0.540635        14.7114 
 156   0.0000       0.549637        14.9564 
 157   0.0000       0.552015        15.0211 
 158   0.0000       0.565588        15.3904 
 159   0.0000       0.572452        15.5772 
 160   0.0000       0.578733        15.7481 
 161   0.0000       0.584253        15.8983 
 162   0.0000       0.591225        16.0880 
 163   0.0000       0.604856        16.4590 
 164   0.0000       0.609516        16.5858 
 165   0.0000       0.620957        16.8971 
 166   0.0000       0.629647        17.1336 
 167   0.0000       0.630550        17.1581 
 168   0.0000       0.636459        17.3189 
 169   0.0000       0.639844        17.4111 
 170   0.0000       0.642726        17.4895 
 171   0.0000       0.650567        17.7028 
 172   0.0000       0.655230        17.8297 
 173   0.0000       0.657419        17.8893 
 174   0.0000       0.662146        18.0179 
 175   0.0000       0.665692        18.1144 
 176   0.0000       0.673581        18.3291 
 177   0.0000       0.682249        18.5649 
 178   0.0000       0.695703        18.9310 
 179   0.0000       0.705915        19.2089 
 180   0.0000       0.711320        19.3560 
 181   0.0000       0.716336        19.4925 
 182   0.0000       0.723724        19.6935 
 183   0.0000       0.729744        19.8573 
 184   0.0000       0.731154        19.8957 
 185   0.0000       0.745822        20.2949 
 186   0.0000       0.748645        20.3717 
 187   0.0000       0.755678        20.5630 
 188   0.0000       0.760639        20.6981 
 189   0.0000       0.762499        20.7487 
 190   0.0000       0.772961        21.0333 
 191   0.0000       0.787281        21.4230 
 192   0.0000       0.792588        21.5674 
 193   0.0000       0.797812        21.7096 
 194   0.0000       0.803429        21.8624 
 195   0.0000       0.822013        22.3681 
 196   0.0000       0.835304        22.7298 
 197   0.0000       0.847751        23.0685 
 198   0.0000       0.851862        23.1803 
 199   0.0000       0.854478        23.2515 
 200   0.0000       0.863759        23.5041 
 201   0.0000       0.884953        24.0808 
 202   0.0000       0.903203        24.5774 
 203   0.0000       0.917910        24.9776 
 204   0.0000       0.934757        25.4360 
 205   0.0000       0.943002        25.6604 
 206   0.0000       0.956371        26.0242 
 207   0.0000       0.964658        26.2497 
 208   0.0000       0.991371        26.9766 
 209   0.0000       0.991572        26.9821 
 210   0.0000       1.006277        27.3822 
 211   0.0000       1.022406        27.8211 
 212   0.0000       1.029240        28.0070 
 213   0.0000       1.035820        28.1861 
 214   0.0000       1.048695        28.5364 
 215   0.0000       1.089672        29.6515 
 216   0.0000       1.095090        29.7989 
 217   0.0000       1.107953        30.1489 
 218   0.0000       1.113218        30.2922 
 219   0.0000       1.126796        30.6617 
 220   0.0000       1.131022        30.7767 
 221   0.0000       1.140533        31.0355 
 222   0.0000       1.172384        31.9022 
 223   0.0000       1.178047        32.0563 
 224   0.0000       1.187546        32.3148 
 225   0.0000       1.194536        32.5050 
 226   0.0000       1.202339        32.7173 
 227   0.0000       1.210754        32.9463 
 228   0.0000       1.217471        33.1291 
 229   0.0000       1.221649        33.2428 
 230   0.0000       1.230651        33.4877 
 231   0.0000       1.236906        33.6579 
 232   0.0000       1.241898        33.7938 
 233   0.0000       1.243287        33.8316 
 234   0.0000       1.249794        34.0086 
 235   0.0000       1.253880        34.1198 
 236   0.0000       1.262844        34.3637 
 237   0.0000       1.269664        34.5493 
 238   0.0000       1.283360        34.9220 
 239   0.0000       1.287687        35.0397 
 240   0.0000       1.304936        35.5091 
 241   0.0000       1.312359        35.7111 
 242   0.0000       1.324749        36.0483 
 243   0.0000       1.332094        36.2481 
 244   0.0000       1.343092        36.5474 
 245   0.0000       1.344649        36.5898 
 246   0.0000       1.353939        36.8426 
 247   0.0000       1.369363        37.2623 
 248   0.0000       1.378409        37.5084 
 249   0.0000       1.381478        37.5919 
 250   0.0000       1.400279        38.1035 
 251   0.0000       1.402845        38.1733 
 252   0.0000       1.426046        38.8047 
 253   0.0000       1.435569        39.0638 
 254   0.0000       1.471493        40.0414 
 255   0.0000       1.475880        40.1607 
 256   0.0000       1.494271        40.6612 
 257   0.0000       1.500705        40.8362 
 258   0.0000       1.511106        41.1193 
 259   0.0000       1.531399        41.6715 
 260   0.0000       1.622061        44.1385 
 261   0.0000       1.622734        44.1568 
 262   0.0000       1.642374        44.6913 
 263   0.0000       1.652366        44.9632 
 264   0.0000       1.653694        44.9993 
 265   0.0000       1.662399        45.2362 
 266   0.0000       1.670243        45.4496 
 267   0.0000       1.673587        45.5406 
 268   0.0000       1.675224        45.5852 
 269   0.0000       1.691513        46.0284 
 270   0.0000       1.695840        46.1462 
 271   0.0000       1.704289        46.3761 
 272   0.0000       1.715777        46.6887 
 273   0.0000       1.717532        46.7364 
 274   0.0000       1.723342        46.8945 
 275   0.0000       1.735727        47.2315 
 276   0.0000       1.738501        47.3070 
 277   0.0000       1.744025        47.4573 
 278   0.0000       1.754930        47.7541 
 279   0.0000       1.760216        47.8979 
 280   0.0000       1.761686        47.9379 
 281   0.0000       1.763486        47.9869 
 282   0.0000       1.768200        48.1152 
 283   0.0000       1.776147        48.3314 
 284   0.0000       1.784243        48.5517 
 285   0.0000       1.788971        48.6804 
 286   0.0000       1.797263        48.9060 
 287   0.0000       1.809076        49.2275 
 288   0.0000       1.822239        49.5856 
 289   0.0000       1.842323        50.1322 
 290   0.0000       1.845562        50.2203 
 291   0.0000       1.862898        50.6920 
 292   0.0000       1.870470        50.8981 
 293   0.0000       1.901050        51.7302 
 294   0.0000       1.902546        51.7709 
 295   0.0000       1.905333        51.8467 
 296   0.0000       1.927394        52.4471 
 297   0.0000       1.938494        52.7491 
 298   0.0000       1.948271        53.0152 
 299   0.0000       1.962535        53.4033 
 300   0.0000       1.976620        53.7866 
 301   0.0000       1.977859        53.8203 
 302   0.0000       1.988306        54.1046 
 303   0.0000       2.007369        54.6233 
 304   0.0000       2.015231        54.8372 
 305   0.0000       2.038107        55.4597 
 306   0.0000       2.040033        55.5121 
 307   0.0000       2.047705        55.7209 
 308   0.0000       2.050265        55.7905 
 309   0.0000       2.058629        56.0181 
 310   0.0000       2.061169        56.0873 
 311   0.0000       2.082870        56.6778 
 312   0.0000       2.091752        56.9195 
 313   0.0000       2.100150        57.1480 
 314   0.0000       2.119613        57.6776 
 315   0.0000       2.122451        57.7548 
 316   0.0000       2.132690        58.0334 
 317   0.0000       2.140196        58.2377 
 318   0.0000       2.147991        58.4498 
 319   0.0000       2.158403        58.7331 
 320   0.0000       2.173417        59.1417 
 321   0.0000       2.187235        59.5177 
 322   0.0000       2.203529        59.9611 
 323   0.0000       2.210062        60.1388 
 324   0.0000       2.213732        60.2387 
 325   0.0000       2.231005        60.7087 
 326   0.0000       2.243386        61.0456 
 327   0.0000       2.245066        61.0913 
 328   0.0000       2.252228        61.2862 
 329   0.0000       2.258664        61.4614 
 330   0.0000       2.271944        61.8227 
 331   0.0000       2.279646        62.0323 
 332   0.0000       2.295288        62.4580 
 333   0.0000       2.306110        62.7524 
 334   0.0000       2.319679        63.1217 
 335   0.0000       2.328554        63.3632 
 336   0.0000       2.364533        64.3422 
 337   0.0000       2.367542        64.4241 
 338   0.0000       2.376720        64.6738 
 339   0.0000       2.388004        64.9809 
 340   0.0000       2.403124        65.3923 
 341   0.0000       2.421348        65.8882 
 342   0.0000       2.428636        66.0866 
 343   0.0000       2.460993        66.9670 
 344   0.0000       2.464725        67.0686 
 345   0.0000       2.489991        67.7561 
 346   0.0000       2.512401        68.3659 
 347   0.0000       2.520282        68.5804 
 348   0.0000       2.529052        68.8190 
 349   0.0000       2.550590        69.4051 
 350   0.0000       2.563324        69.7516 
 351   0.0000       2.581797        70.2543 
 352   0.0000       2.586376        70.3789 
 353   0.0000       2.595415        70.6248 
 354   0.0000       2.612341        71.0854 
 355   0.0000       2.624359        71.4124 
 356   0.0000       2.631073        71.5951 
 357   0.0000       2.645559        71.9893 
 358   0.0000       2.659711        72.3744 
 359   0.0000       2.663954        72.4899 
 360   0.0000       2.674713        72.7827 
 361   0.0000       2.677722        72.8645 
 362   0.0000       2.689215        73.1773 
 363   0.0000       2.702958        73.5512 
 364   0.0000       2.713514        73.8385 
 365   0.0000       2.721881        74.0662 
 366   0.0000       2.742830        74.6362 
 367   0.0000       2.758057        75.0505 
 368   0.0000       2.764780        75.2335 
 369   0.0000       2.772380        75.4403 
 370   0.0000       2.802891        76.2705 
 371   0.0000       2.810203        76.4695 
 372   0.0000       2.828062        76.9555 
 373   0.0000       2.854901        77.6858 
 374   0.0000       2.871044        78.1251 
 375   0.0000       2.882029        78.4240 
 376   0.0000       2.905944        79.0748 
 377   0.0000       2.928684        79.6935 
 378   0.0000       2.937696        79.9388 
 379   0.0000       2.954832        80.4051 
 380   0.0000       2.964668        80.6727 
 381   0.0000       2.993268        81.4510 
 382   0.0000       3.001743        81.6816 
 383   0.0000       3.043429        82.8159 
 384   0.0000       3.059167        83.2442 
 385   0.0000       3.098012        84.3012 
 386   0.0000       3.147934        85.6596 
 387   0.0000       3.183509        86.6277 
 388   0.0000       3.241731        88.2120 
 389   0.0000       3.265229        88.8514 
 390   0.0000       3.282080        89.3099 
 391   0.0000       3.298541        89.7579 
 392   0.0000       3.351237        91.1918 
 393   0.0000       3.378898        91.9445 
 394   0.0000       3.438908        93.5775 
 395   0.0000       3.487048        94.8874 
 396   0.0000       3.575084        97.2830 
 397   0.0000       3.626050        98.6698 
 398   0.0000       3.736853       101.6849 
 399   0.0000       3.778865       102.8282 
 400   0.0000       3.782533       102.9279 

                    ********************************
                    * MULLIKEN POPULATION ANALYSIS *
                    ********************************

-----------------------
MULLIKEN ATOMIC CHARGES
-----------------------
   0 C :    0.075108
   1 C :   -0.022695
   2 C :   -0.030229
   3 C :    0.072999
   4 C :   -0.011955
   5 C :   -0.028916
   6 C :    0.055283
   7 C :    0.091416
   8 C :   -0.042105
   9 C :   -0.024666
  10 C :    0.061483
  11 C :   -0.003862
  12 C :   -0.041947
  13 C :    0.079436
  14 C :    0.054682
  15 C :    0.067101
  16 C :    0.040629
  17 C :   -0.045268
  18 C :    0.059750
  19 C :    0.063253
  20 O :   -0.200650
  21 N :    0.232633
  22 O :   -0.262643
  23 O :   -0.259515
  24 H :   -0.022483
  25 H :   -0.028263
  26 H :   -0.029532
  27 H :   -0.028752
  28 H :   -0.037212
  29 H :   -0.029743
  30 H :   -0.027313
  31 H :   -0.025928
  32 H :    0.014469
  33 H :    0.010421
  34 H :    0.003688
  35 H :    0.021702
  36 H :    0.199625
Sum of atomic charges:    0.0000000

--------------------------------
MULLIKEN REDUCED ORBITAL CHARGES
--------------------------------
  0 C s       :     3.100232  s :     3.100232
      pz      :     1.022667  p :     2.784072
      px      :     0.814044
      py      :     0.947360
      dz2     :     0.003154  d :     0.040588
      dxz     :     0.005470
      dyz     :     0.005852
      dx2y2   :     0.013079
      dxy     :     0.013033
  1 C s       :     3.229702  s :     3.229702
      pz      :     0.967556  p :     2.757906
      px      :     0.973747
      py      :     0.816603
      dz2     :     0.002612  d :     0.035087
[...]
     90       0.114094   0.002044  -0.000209
     91       0.065383   0.001220  -0.000106
     92      -0.000677  -0.000017   0.000004
     93       0.681734   0.019323   0.000010
     94      -0.393957  -0.011382   0.000035
     95       0.069972   0.002005  -0.000001
     96       0.510648   0.031025   0.000006
     97       0.296675   0.021261  -0.000027
     98      -0.003894  -0.000541   0.000004
     99      -0.000824  -0.000308   0.001008
    100      -0.000509  -0.000186   0.001248
    101      -0.000341  -0.000150  -0.000071
    102      -0.027874   0.730702  -0.000087
    103      -0.022553   0.669515  -0.000087
    104       0.000800  -0.028212   0.000005
    105      -0.000163   0.000038   0.002308
    106      -0.000128   0.000028   0.009703
    107      -0.000094   0.000021   0.004060
    108       0.000013   0.000025   0.055460
    109       0.000038   0.000122   0.926750
    110       0.000023   0.000060   0.366036


-----------
IR SPECTRUM
-----------

 Mode   freq       eps      Int      T**2         TX        TY        TZ
       cm**-1   L/(mol*cm) km/mol    a.u.
----------------------------------------------------------------------------
  6:     21.22   0.000013    0.06  0.000188  ( 0.004109 -0.012868  0.002340)
  7:     29.32   0.000047    0.24  0.000501  ( 0.007304 -0.014808 -0.015103)
  8:     57.51   0.001139    5.76  0.006182  ( 0.000984  0.028855 -0.073136)
  9:     65.93   0.000165    0.83  0.000782  (-0.005739 -0.027290  0.002054)
 10:     96.31   0.001768    8.93  0.005728  ( 0.023108  0.053947 -0.047787)
 11:    100.64   0.000127    0.64  0.000395  (-0.008474  0.016372  0.007443)
 12:    119.38   0.000174    0.88  0.000455  ( 0.008831 -0.017316  0.008789)
 13:    123.25   0.001830    9.25  0.004633  ( 0.002226 -0.024648  0.063404)
 14:    167.10   0.000580    2.93  0.001084  (-0.006953 -0.025614  0.019484)
 15:    212.31   0.001030    5.20  0.001514  ( 0.011259  0.027495 -0.025116)
 16:    215.54   0.000052    0.26  0.000075  ( 0.000320 -0.003977 -0.007706)
 17:    222.43   0.001243    6.28  0.001744  (-0.003792  0.006626  0.041055)
 18:    252.76   0.000123    0.62  0.000151  (-0.011596 -0.003323 -0.002409)
 19:    266.25   0.000063    0.32  0.000074  ( 0.000598 -0.005350  0.006679)
 20:    303.70   0.003888   19.65  0.003995  (-0.018577 -0.025126  0.054939)
 21:    306.93   0.000716    3.62  0.000728  (-0.017754  0.019651 -0.005173)
 22:    343.90   0.012984   65.62  0.011782  ( 0.039685  0.031506 -0.095994)
 23:    357.00   0.001455    7.35  0.001272  ( 0.004681 -0.025645  0.024341)
 24:    392.09   0.002206   11.15  0.001756  (-0.010556 -0.011419  0.038907)
 25:    421.94   0.001526    7.71  0.001129  (-0.018243  0.027644 -0.005645)
 26:    452.31   0.000365    1.85  0.000252  (-0.010575  0.011757 -0.001418)
 27:    457.02   0.001534    7.75  0.001047  (-0.025439  0.019699  0.003468)
 28:    503.41   0.000604    3.05  0.000375  ( 0.007862 -0.017582  0.001944)
 29:    523.16   0.000243    1.23  0.000145  ( 0.004845  0.010596 -0.003078)
 30:    527.40   0.000033    0.17  0.000020  ( 0.003255 -0.001291 -0.002746)
 31:    533.54   0.001586    8.02  0.000928  ( 0.009498 -0.028840 -0.002401)
 32:    561.36   0.000604    3.05  0.000336  ( 0.000898  0.003135  0.018033)
 33:    569.96   0.000287    1.45  0.000157  ( 0.002018  0.000655  0.012354)
 34:    579.19   0.001113    5.62  0.000599  (-0.008138  0.022947 -0.002584)
 35:    604.21   0.002797   14.14  0.001445  (-0.019694  0.031931 -0.006097)
 36:    632.72   0.001072    5.42  0.000529  ( 0.010517 -0.019984  0.004324)
 37:    666.19   0.000243    1.23  0.000114  ( 0.006778 -0.006782 -0.004684)
 38:    701.50   0.000049    0.25  0.000022  ( 0.004534 -0.000339  0.001124)
 39:    719.32   0.001070    5.41  0.000464  (-0.000984 -0.001448 -0.021475)
 40:    735.06   0.000378    1.91  0.000161  (-0.010505 -0.004884  0.005128)
 41:    742.01   0.000115    0.58  0.000048  ( 0.005101  0.002095  0.004253)
 42:    762.75   0.002955   14.93  0.001209  (-0.001682 -0.001807 -0.034681)
 43:    775.45   0.001727    8.73  0.000695  (-0.020148  0.016970 -0.001057)
 44:    800.31   0.008996   45.46  0.003508  (-0.045379  0.037744 -0.004884)
 45:    819.95   0.002206   11.15  0.000840  (-0.004597  0.028591  0.000992)
 46:    820.28   0.002957   14.94  0.001125  (-0.007483  0.031737 -0.007847)
 47:    839.83   0.003512   17.75  0.001305  (-0.005959  0.009790  0.034261)
 48:    853.70   0.001615    8.16  0.000590  ( 0.002594 -0.002062 -0.024067)
 49:    863.92   0.000875    4.42  0.000316  (-0.004221  0.016002 -0.006506)
 50:    875.64   0.003243   16.39  0.001156  (-0.009508  0.013011  0.029937)
 51:    886.56   0.001828    9.24  0.000643  (-0.012314  0.015579  0.015779)
 52:    888.94   0.008477   42.84  0.002976  (-0.003663  0.001121 -0.054416)
 53:    942.48   0.000558    2.82  0.000185  (-0.004306  0.005830  0.011495)
 54:    948.65   0.007275   36.76  0.002393  ( 0.023946 -0.011518 -0.041073)
 55:    987.76   0.012982   65.60  0.004101  (-0.032386  0.054609 -0.008388)
 56:    994.39   0.002118   10.70  0.000665  ( 0.009071 -0.019810  0.013785)
 57:    995.85   0.001221    6.17  0.000382  ( 0.007477 -0.014843 -0.010309)
 58:    999.27   0.001233    6.23  0.000385  (-0.012308  0.015151 -0.001987)
 59:   1010.28   0.022982  116.14  0.007099  (-0.047005  0.069457 -0.008064)
 60:   1012.35   0.001779    8.99  0.000548  (-0.002791  0.005487  0.022596)
 61:   1016.53   0.000585    2.95  0.000179  ( 0.003017 -0.003336 -0.012619)
 62:   1019.25   0.000306    1.55  0.000094  (-0.002265  0.002807 -0.008979)
 63:   1116.38   0.002083   10.53  0.000582  ( 0.006957 -0.023075  0.001214)
 64:   1131.19   0.000160    0.81  0.000044  (-0.006067  0.002558 -0.000818)
 65:   1165.54   0.001872    9.46  0.000501  ( 0.000218 -0.022013 -0.004066)
 66:   1182.11   0.000078    0.39  0.000021  ( 0.004171 -0.000394  0.001724)
 67:   1189.16   0.003041   15.37  0.000798  ( 0.019558 -0.019998  0.003963)
 68:   1198.74   0.004567   23.08  0.001189  (-0.032825  0.010502 -0.001097)
 69:   1207.53   0.018519   93.59  0.004786  (-0.056796  0.039253 -0.004389)
 70:   1227.92   0.069866  353.07  0.017756  (-0.073061  0.111097 -0.008685)
 71:   1235.91   0.049811  251.73  0.012577  ( 0.070081 -0.087177  0.008132)
 72:   1263.57   0.033813  170.88  0.008351  ( 0.045922 -0.078532  0.008635)
 73:   1268.21   0.000345    1.74  0.000085  ( 0.004481  0.007703 -0.002341)
 74:   1276.32   0.004237   21.41  0.001036  (-0.008620  0.030639 -0.004781)
 75:   1282.98   0.047308  239.07  0.011507  (-0.065242  0.084715 -0.008579)
 76:   1320.30   0.001409    7.12  0.000333  ( 0.010379 -0.014977  0.000969)
 77:   1333.76   0.005805   29.34  0.001358  ( 0.019887 -0.030907  0.002727)
 78:   1342.75   0.002291   11.58  0.000533  ( 0.022185 -0.002404  0.005881)
 79:   1369.97   0.000355    1.80  0.000081  (-0.008581 -0.002558 -0.000860)
 80:   1376.38   0.017530   88.59  0.003975  (-0.048035  0.040100 -0.007692)
 81:   1399.57   0.198498  1003.13  0.044259  ( 0.137219 -0.158029  0.021382)
 82:   1406.88   0.004266   21.56  0.000946  (-0.024241  0.018805 -0.002211)
 83:   1413.09   0.014012   70.81  0.003094  (-0.038351  0.040159 -0.003284)
 84:   1426.37   0.002314   11.69  0.000506  ( 0.001662 -0.022422  0.000854)
 85:   1442.12   0.000019    0.10  0.000004  (-0.000275 -0.002013 -0.000241)
 86:   1467.91   0.003015   15.24  0.000641  (-0.020335  0.014739 -0.003189)
 87:   1504.63   0.000535    2.70  0.000111  ( 0.004225  0.009617 -0.000742)
 88:   1536.18   0.000738    3.73  0.000150  ( 0.012164 -0.001300  0.000392)
 89:   1547.23   0.003663   18.51  0.000739  ( 0.005675 -0.026375  0.003315)
 90:   1573.54   0.004097   20.70  0.000812  ( 0.020112 -0.020135  0.001595)
 91:   1621.13   0.002090   10.56  0.000402  ( 0.003879 -0.019643  0.001163)
 92:   1629.88   0.047369  239.38  0.009069  (-0.086819  0.038692 -0.005893)
 93:   1644.70   0.020281  102.49  0.003848  ( 0.007642 -0.061441  0.003840)
 94:   1659.17   0.005379   27.18  0.001012  ( 0.017567  0.026399 -0.002479)
 95:   1669.58   0.034223  172.95  0.006397  ( 0.015940 -0.078111  0.006418)
 96:   1695.16   0.044177  223.25  0.008133  (-0.013188  0.088753 -0.009030)
 97:   1734.40   0.076200  385.09  0.013710  ( 0.059110 -0.101075  0.000493)
 98:   3147.95   0.002097   10.60  0.000208  (-0.012978 -0.001203 -0.006166)
 99:   3172.03   0.000305    1.54  0.000030  (-0.004520  0.003084 -0.000280)
100:   3175.56   0.000855    4.32  0.000084  (-0.009087  0.001049 -0.000556)
101:   3175.75   0.001867    9.43  0.000183  ( 0.013539 -0.000018  0.000371)
102:   3178.91   0.002392   12.09  0.000235  ( 0.015096 -0.002459  0.000955)
103:   3183.90   0.001511    7.63  0.000148  ( 0.006242 -0.010306  0.001702)
104:   3192.35   0.004118   20.81  0.000403  (-0.005254 -0.019269  0.001907)
105:   3199.46   0.002109   10.66  0.000206  (-0.005209 -0.013331  0.000937)
106:   3206.02   0.000936    4.73  0.000091  ( 0.009081  0.002928  0.000136)
107:   3215.64   0.002007   10.14  0.000195  (-0.013646  0.002761 -0.000974)
108:   3224.05   0.000410    2.07  0.000040  (-0.005644  0.002760 -0.000497)
109:   3254.07   0.003142   15.88  0.000301  (-0.008722  0.014909 -0.001733)
110:   3848.46   0.059474  300.56  0.004823  (-0.022919  0.064855  0.009547)

* The epsilon (eps) is given for a Dirac delta lineshape.
** The dipole moment derivative (T) already includes vibrational overlap.

The first frequency considered to be a vibration is 6
The total number of vibrations considered is 105


--------------------------
THERMOCHEMISTRY AT 298.15K
--------------------------

Temperature         ... 298.15 K
Pressure            ... 1.00 atm
Total Mass          ... 315.33 AMU

Throughout the following assumptions are being made:
  (1) The electronic state is orbitally nondegenerate
  (2) There are no thermally accessible electronically excited states
  (3) Hindered rotations indicated by low frequency modes are not
      treated as such but are treated as vibrations and this may
      cause some error
  (4) All equations used are the standard statistical mechanics
      equations for an ideal gas
  (5) All vibrations are strictly harmonic

freq.      21.22  E(vib)   ...       0.56 
freq.      29.32  E(vib)   ...       0.55 
freq.      57.51  E(vib)   ...       0.51 
freq.      65.93  E(vib)   ...       0.50 
freq.      96.31  E(vib)   ...       0.47 
freq.     100.64  E(vib)   ...       0.46 
freq.     119.38  E(vib)   ...       0.44 
freq.     123.25  E(vib)   ...       0.43 
freq.     167.10  E(vib)   ...       0.39 
freq.     212.31  E(vib)   ...       0.34 
freq.     215.54  E(vib)   ...       0.34 
freq.     222.43  E(vib)   ...       0.33 
freq.     252.76  E(vib)   ...       0.30 
freq.     266.25  E(vib)   ...       0.29 
freq.     303.70  E(vib)   ...       0.26 
freq.     306.93  E(vib)   ...       0.26 
freq.     343.90  E(vib)   ...       0.23 
freq.     357.00  E(vib)   ...       0.22 
freq.     392.09  E(vib)   ...       0.20 
freq.     421.94  E(vib)   ...       0.18 
freq.     452.31  E(vib)   ...       0.16 
freq.     457.02  E(vib)   ...       0.16 
freq.     503.41  E(vib)   ...       0.14 
freq.     523.16  E(vib)   ...       0.13 
freq.     527.40  E(vib)   ...       0.13 
freq.     533.54  E(vib)   ...       0.13 
freq.     561.36  E(vib)   ...       0.11 
freq.     569.96  E(vib)   ...       0.11 
freq.     579.19  E(vib)   ...       0.11 
freq.     604.21  E(vib)   ...       0.10 
freq.     632.72  E(vib)   ...       0.09 
freq.     666.19  E(vib)   ...       0.08 
freq.     701.50  E(vib)   ...       0.07 
freq.     719.32  E(vib)   ...       0.07 
freq.     735.06  E(vib)   ...       0.06 
freq.     742.01  E(vib)   ...       0.06 
freq.     762.75  E(vib)   ...       0.06 
freq.     775.45  E(vib)   ...       0.05 
freq.     800.31  E(vib)   ...       0.05 
freq.     819.95  E(vib)   ...       0.05 
freq.     820.28  E(vib)   ...       0.05 
freq.     839.83  E(vib)   ...       0.04 
freq.     853.70  E(vib)   ...       0.04 
freq.     863.92  E(vib)   ...       0.04 
freq.     875.64  E(vib)   ...       0.04 
freq.     886.56  E(vib)   ...       0.04 
freq.     888.94  E(vib)   ...       0.04 
freq.     942.48  E(vib)   ...       0.03 
freq.     948.65  E(vib)   ...       0.03 
freq.     987.76  E(vib)   ...       0.02 
freq.     994.39  E(vib)   ...       0.02 
freq.     995.85  E(vib)   ...       0.02 
freq.     999.27  E(vib)   ...       0.02 
freq.    1010.28  E(vib)   ...       0.02 
freq.    1012.35  E(vib)   ...       0.02 
freq.    1016.53  E(vib)   ...       0.02 
freq.    1019.25  E(vib)   ...       0.02 
freq.    1116.38  E(vib)   ...       0.01 
freq.    1131.19  E(vib)   ...       0.01 
freq.    1165.54  E(vib)   ...       0.01 
freq.    1182.11  E(vib)   ...       0.01 
freq.    1189.16  E(vib)   ...       0.01 
freq.    1198.74  E(vib)   ...       0.01 
freq.    1207.53  E(vib)   ...       0.01 
freq.    1227.92  E(vib)   ...       0.01 
freq.    1235.91  E(vib)   ...       0.01 
freq.    1263.57  E(vib)   ...       0.01 
freq.    1268.21  E(vib)   ...       0.01 
freq.    1276.32  E(vib)   ...       0.01 
freq.    1282.98  E(vib)   ...       0.01 
freq.    1320.30  E(vib)   ...       0.01 
freq.    1333.76  E(vib)   ...       0.01 
freq.    1342.75  E(vib)   ...       0.01 
freq.    1369.97  E(vib)   ...       0.01 
freq.    1376.38  E(vib)   ...       0.01 
freq.    1399.57  E(vib)   ...       0.00 
freq.    1406.88  E(vib)   ...       0.00 
freq.    1413.09  E(vib)   ...       0.00 
freq.    1426.37  E(vib)   ...       0.00 
freq.    1442.12  E(vib)   ...       0.00 
freq.    1467.91  E(vib)   ...       0.00 
freq.    1504.63  E(vib)   ...       0.00 
freq.    1536.18  E(vib)   ...       0.00 
freq.    1547.23  E(vib)   ...       0.00 
freq.    1573.54  E(vib)   ...       0.00 
freq.    1621.13  E(vib)   ...       0.00 
freq.    1629.88  E(vib)   ...       0.00 
freq.    1644.70  E(vib)   ...       0.00 
freq.    1659.17  E(vib)   ...       0.00 
freq.    1669.58  E(vib)   ...       0.00 
freq.    1695.16  E(vib)   ...       0.00 
freq.    1734.40  E(vib)   ...       0.00 
freq.    3147.95  E(vib)   ...       0.00 
freq.    3172.03  E(vib)   ...       0.00 
freq.    3175.56  E(vib)   ...       0.00 
freq.    3175.75  E(vib)   ...       0.00 
freq.    3178.91  E(vib)   ...       0.00 
freq.    3183.90  E(vib)   ...       0.00 
freq.    3192.35  E(vib)   ...       0.00 
freq.    3199.46  E(vib)   ...       0.00 
freq.    3206.02  E(vib)   ...       0.00 
freq.    3215.64  E(vib)   ...       0.00 
freq.    3224.05  E(vib)   ...       0.00 
freq.    3254.07  E(vib)   ...       0.00 
freq.    3848.46  E(vib)   ...       0.00 

------------
INNER ENERGY
------------

The inner energy is: U= E(el) + E(ZPE) + E(vib) + E(rot) + E(trans)
    E(el)   - is the total energy from the electronic structure calculation
              = E(kin-el) + E(nuc-el) + E(el-el) + E(nuc-nuc)
    E(ZPE)  - the the zero temperature vibrational energy from the frequency calculation
    E(vib)  - the the finite temperature correction to E(ZPE) due to population
              of excited vibrational states
    E(rot)  - is the rotational thermal energy
    E(trans)- is the translational thermal energy

Summary of contributions to the inner energy U:
Electronic energy                ...  -1048.92606534 Eh
Zero point energy                ...      0.28188321 Eh     176.88 kcal/mol
Thermal vibrational correction   ...      0.01578819 Eh       9.91 kcal/mol
Thermal rotational correction    ...      0.00141627 Eh       0.89 kcal/mol
Thermal translational correction ...      0.00141627 Eh       0.89 kcal/mol
-----------------------------------------------------------------------
Total thermal energy                  -1048.62556140 Eh


Summary of corrections to the electronic energy:
(perhaps to be used in another calculation)
Total thermal correction                  0.01862073 Eh      11.68 kcal/mol
Non-thermal (ZPE) correction              0.28188321 Eh     176.88 kcal/mol
-----------------------------------------------------------------------
Total correction                          0.30050394 Eh     188.57 kcal/mol


--------
ENTHALPY
--------

The enthalpy is H = U + kB*T
                kB is Boltzmann's constant
Total free energy                 ...  -1048.62556140 Eh 
Thermal Enthalpy correction       ...      0.00094421 Eh       0.59 kcal/mol
-----------------------------------------------------------------------
Total Enthalpy                    ...  -1048.62461719 Eh


Note: Only C1 symmetry has been detected, increase convergence thresholds 
      if your molecule has a higher symmetry. Symmetry factor of 1.0 is   
      used for the rotational entropy correction. 
 

Note: Rotational entropy computed according to Herzberg 
Infrared and Raman Spectra, Chapter V,1, Van Nostrand Reinhold, 1945 
Point Group:  C1, Symmetry Number:   1  
Rotational constants in cm-1:     0.024869     0.003311     0.002926 

Vibrational entropy computed according to the QRRHO of S. Grimme
Chem.Eur.J. 2012 18 9955


-------
ENTROPY
-------

The entropy contributions are T*S = T*(S(el)+S(vib)+S(rot)+S(trans))
     S(el)   - electronic entropy
     S(vib)  - vibrational entropy
     S(rot)  - rotational entropy
     S(trans)- translational entropy
The entropies will be listed as multiplied by the temperature to get
units of energy

Electronic entropy                ...      0.00000000 Eh      0.00 kcal/mol
Vibrational entropy               ...      0.02757860 Eh     17.31 kcal/mol
Rotational entropy                ...      0.01670489 Eh     10.48 kcal/mol
Translational entropy             ...      0.02049775 Eh     12.86 kcal/mol
-----------------------------------------------------------------------
Final entropy term                ...      0.06478123 Eh     40.65 kcal/mol

In case the symmetry of your molecule has not been determined correctly
or in case you have a reason to use a different symmetry number we print 
out the resulting rotational entropy values for sn=1,12 :
 --------------------------------------------------------
|  sn= 1 | S(rot)=       0.01670489 Eh     10.48 kcal/mol|
|  sn= 2 | S(rot)=       0.01605043 Eh     10.07 kcal/mol|
|  sn= 3 | S(rot)=       0.01566760 Eh      9.83 kcal/mol|
|  sn= 4 | S(rot)=       0.01539597 Eh      9.66 kcal/mol|
|  sn= 5 | S(rot)=       0.01518529 Eh      9.53 kcal/mol|
|  sn= 6 | S(rot)=       0.01501314 Eh      9.42 kcal/mol|
|  sn= 7 | S(rot)=       0.01486760 Eh      9.33 kcal/mol|
|  sn= 8 | S(rot)=       0.01474152 Eh      9.25 kcal/mol|
|  sn= 9 | S(rot)=       0.01463031 Eh      9.18 kcal/mol|
|  sn=10 | S(rot)=       0.01453083 Eh      9.12 kcal/mol|
|  sn=11 | S(rot)=       0.01444084 Eh      9.06 kcal/mol|
|  sn=12 | S(rot)=       0.01435869 Eh      9.01 kcal/mol|
 --------------------------------------------------------


-------------------
GIBBS FREE ENERGY
-------------------

The Gibbs free energy is G = H - T*S

Total enthalpy                    ...  -1048.62461719 Eh 
Total entropy correction          ...     -0.06478123 Eh    -40.65 kcal/mol
-----------------------------------------------------------------------
Final Gibbs free energy         ...  -1048.68939842 Eh

For completeness - the Gibbs free energy minus the electronic energy
G-E(el)                           ...      0.23666692 Eh    148.51 kcal/mol


Timings for individual modules:

Sum of individual times         ...     2864.863 sec (=  47.748 min)
GTO integral calculation        ...      106.209 sec (=   1.770 min)   3.7 %
SCF iterations                  ...     1465.469 sec (=  24.424 min)  51.2 %
SCF Gradient evaluation         ...      236.592 sec (=   3.943 min)   8.3 %
Geometry relaxation             ...       12.716 sec (=   0.212 min)   0.4 %
Analytical frequency calculation...     1043.877 sec (=  17.398 min)  36.4 %
                             ****ORCA TERMINATED NORMALLY****
TOTAL RUN TIME: 0 days 0 hours 48 minutes 8 seconds 569 msec
