Start Job  on nano06

                                 *****************
                                 * O   R   C   A *
                                 *****************

                                            #,                                       
                                            ###                                      
                                            ####                                     
                                            #####                                    
                                            ######                                   
                                           ########,                                 
                                     ,,################,,,,,                         
                               ,,#################################,,                 
                          ,,##########################################,,             
                       ,#########################################, ''#####,          
                    ,#############################################,,   '####,        
                  ,##################################################,,,,####,       
                ,###########''''           ''''###############################       
              ,#####''   ,,,,##########,,,,          '''####'''          '####       
            ,##' ,,,,###########################,,,                        '##       
           ' ,,###''''                  '''############,,,                           
         ,,##''                                '''############,,,,        ,,,,,,###''
      ,#''                                            '''#######################'''  
     '                                                          ''''####''''         
             ,#######,   #######,   ,#######,      ##                                
            ,#'     '#,  ##    ##  ,#'     '#,    #''#        ######   ,####,        
            ##       ##  ##   ,#'  ##            #'  '#       #        #'  '#        
            ##       ##  #######   ##           ,######,      #####,   #    #        
            '#,     ,#'  ##    ##  '#,     ,#' ,#      #,         ##   #,  ,#        
             '#######'   ##     ##  '#######'  #'      '#     #####' # '####'        



                  #######################################################
                  #                        -***-                        #
                  #          Department of theory and spectroscopy      #
                  #    Directorship and core code : Frank Neese         #
                  #        Max Planck Institute fuer Kohlenforschung    #
                  #                Kaiser Wilhelm Platz 1               #
                  #                 D-45470 Muelheim/Ruhr               #
                  #                      Germany                        #
                  #                                                     #
                  #                  All rights reserved                #
                  #                        -***-                        #
                  #######################################################


                         Program Version 5.0.4 -  RELEASE  -


 With contributions from (in alphabetic order):
   Daniel Aravena         : Magnetic Suceptibility
   Michael Atanasov       : Ab Initio Ligand Field Theory (pilot matlab implementation)
   Alexander A. Auer      : GIAO ZORA, VPT2 properties, NMR spectrum
   Ute Becker             : Parallelization
   Giovanni Bistoni       : ED, misc. LED, open-shell LED, HFLD
   Martin Brehm           : Molecular dynamics
   Dmytro Bykov           : SCF Hessian
   Vijay G. Chilkuri      : MRCI spin determinant printing, contributions to CSF-ICE
   Dipayan Datta          : RHF DLPNO-CCSD density
   Achintya Kumar Dutta   : EOM-CC, STEOM-CC
   Dmitry Ganyushin       : Spin-Orbit,Spin-Spin,Magnetic field MRCI
   Miquel Garcia          : C-PCM and meta-GGA Hessian, CC/C-PCM, Gaussian charge scheme
   Yang Guo               : DLPNO-NEVPT2, F12-NEVPT2, CIM, IAO-localization
   Andreas Hansen         : Spin unrestricted coupled pair/coupled cluster methods
   Benjamin Helmich-Paris : MC-RPA, TRAH-SCF, COSX integrals
   Lee Huntington         : MR-EOM, pCC
   Robert Izsak           : Overlap fitted RIJCOSX, COSX-SCS-MP3, EOM
   Marcus Kettner         : VPT2
   Christian Kollmar      : KDIIS, OOCD, Brueckner-CCSD(T), CCSD density, CASPT2, CASPT2-K
   Simone Kossmann        : Meta GGA functionals, TD-DFT gradient, OOMP2, MP2 Hessian
   Martin Krupicka        : Initial AUTO-CI
   Lucas Lang             : DCDCAS
   Marvin Lechner         : AUTO-CI (C++ implementation), FIC-MRCC
   Dagmar Lenk            : GEPOL surface, SMD
   Dimitrios Liakos       : Extrapolation schemes; Compound Job, initial MDCI parallelization
   Dimitrios Manganas     : Further ROCIS development; embedding schemes
   Dimitrios Pantazis     : SARC Basis sets
   Anastasios Papadopoulos: AUTO-CI, single reference methods and gradients
   Taras Petrenko         : DFT Hessian,TD-DFT gradient, ASA, ECA, R-Raman, ABS, FL, XAS/XES, NRVS
   Peter Pinski           : DLPNO-MP2, DLPNO-MP2 Gradient
   Christoph Reimann      : Effective Core Potentials
   Marius Retegan         : Local ZFS, SOC
   Christoph Riplinger    : Optimizer, TS searches, QM/MM, DLPNO-CCSD(T), (RO)-DLPNO pert. Triples
   Tobias Risthaus        : Range-separated hybrids, TD-DFT gradient, RPA, STAB
   Michael Roemelt        : Original ROCIS implementation
   Masaaki Saitow         : Open-shell DLPNO-CCSD energy and density
   Barbara Sandhoefer     : DKH picture change effects
   Avijit Sen             : IP-ROCIS
   Kantharuban Sivalingam : CASSCF convergence, NEVPT2, FIC-MRCI
   Bernardo de Souza      : ESD, SOC TD-DFT
   Georgi Stoychev        : AutoAux, RI-MP2 NMR, DLPNO-MP2 response
   Willem Van den Heuvel  : Paramagnetic NMR
   Boris Wezisla          : Elementary symmetry handling
   Frank Wennmohs         : Technical directorship


 We gratefully acknowledge several colleagues who have allowed us to
 interface, adapt or use parts of their codes:
   Stefan Grimme, W. Hujo, H. Kruse, P. Pracht,  : VdW corrections, initial TS optimization,
                  C. Bannwarth, S. Ehlert          DFT functionals, gCP, sTDA/sTD-DF
   Ed Valeev, F. Pavosevic, A. Kumar             : LibInt (2-el integral package), F12 methods
   Garnet Chan, S. Sharma, J. Yang, R. Olivares  : DMRG
   Ulf Ekstrom                                   : XCFun DFT Library
   Mihaly Kallay                                 : mrcc  (arbitrary order and MRCC methods)
   Jiri Pittner, Ondrej Demel                    : Mk-CCSD
   Frank Weinhold                                : gennbo (NPA and NBO analysis)
   Christopher J. Cramer and Donald G. Truhlar   : smd solvation model
   Lars Goerigk                                  : TD-DFT with DH, B97 family of functionals
   V. Asgeirsson, H. Jonsson                     : NEB implementation
   FAccTs GmbH                                   : IRC, NEB, NEB-TS, DLPNO-Multilevel, CI-OPT
                                                   MM, QMMM, 2- and 3-layer-ONIOM, Crystal-QMMM,
                                                   LR-CPCM, SF, NACMEs, symmetry and pop. for TD-DFT,
                                                   nearIR, NL-DFT gradient (VV10), updates on ESD,
                                                   ML-optimized integration grids
   S Lehtola, MJT Oliveira, MAL Marques          : LibXC Library
   Liviu Ungur et al                             : ANISO software


 Your calculation uses the libint2 library for the computation of 2-el integrals
 For citations please refer to: http://libint.valeyev.net

 Your ORCA version has been built with support for libXC version: 5.1.0
 For citations please refer to: https://tddft.org/programs/libxc/

 This ORCA versions uses:
   CBLAS   interface :  Fast vector & matrix operations
   LAPACKE interface :  Fast linear algebra routines
   SCALAPACK package :  Parallel linear algebra routines
   Shared memory     :  Shared parallel matrices
   BLAS/LAPACK       :  OpenBLAS 0.3.15  USE64BITINT DYNAMIC_ARCH NO_AFFINITY Zen SINGLE_THREADED
        Core in use  :  Zen
   Copyright (c) 2011-2014, The OpenBLAS Project


================================================================================

----- Orbital basis set information -----
Your calculation utilizes the basis: def2-SVP
   F. Weigend and R. Ahlrichs, Phys. Chem. Chem. Phys. 7, 3297 (2005).

----- AuxJ basis set information -----
Your calculation utilizes the auxiliary basis: def2/J
   F. Weigend, Phys. Chem. Chem. Phys. 8, 1057 (2006).

================================================================================
                                        WARNINGS
                       Please study these warnings very carefully!
================================================================================


WARNING: Geometry Optimization
  ===> : Switching off AutoStart
         For restart on a previous wavefunction, please use MOREAD

INFO   : the flag for use of the SHARK integral package has been found!

================================================================================
                                       INPUT FILE
================================================================================
NAME = NO2_OH_2.inp
|  1> ! B3LYP def2-SVP Opt PAL8 FREQ defgrid3 slowconv VeryTightSCF
|  2> *xyz 0 1
|  3>   C      -7.110798      2.747902     -0.244903
|  4>   C      -5.850411      3.386136     -0.244055
|  5>   C      -4.669692      2.673761     -0.143089
|  6>   C      -4.683063      1.267357     -0.036217
|  7>   C      -3.474414      0.508988      0.068561
|  8>   C      -3.493750     -0.853058      0.170878
|  9>   C      -4.722745     -1.597925      0.179102
| 10>   C      -4.758827     -3.025741      0.284992
| 11>   C      -6.023057     -3.656700      0.284121
| 12>   C      -7.205804     -2.943329      0.185899
| 13>   C      -7.200858     -1.539300      0.079980
| 14>   C      -8.408890     -0.780962     -0.023845
| 15>   C      -8.394335      0.581110     -0.127443
| 16>   C      -7.162163      1.320392     -0.136487
| 17>   C      -5.934562      0.577342     -0.032134
| 18>   C      -5.949036     -0.854306      0.075923
| 19>   C      -8.332320      3.532005     -0.355410
| 20>   C      -3.526515     -3.806962      0.390256
| 21>   C      -8.437774      4.870165     -0.473117
| 22>   C      -3.427698     -5.147000      0.500748
| 23>   O      -2.220430     -5.753147      0.588962
| 24>   N      -9.745311      5.496255     -0.573842
| 25>   O      -9.743636      6.717777     -0.679641
| 26>   O     -10.752415      4.799062     -0.549419
| 27>   H      -5.801857      4.473752     -0.324826
| 28>   H      -3.710825      3.198599     -0.145665
| 29>   H      -2.521395      1.044833      0.065122
| 30>   H      -2.543560     -1.380315      0.248395
| 31>   H      -6.082214     -4.744086      0.362422
| 32>   H      -8.162647     -3.472835      0.189535
| 33>   H      -9.362196     -1.316904     -0.019269
| 34>   H      -9.344753      1.108029     -0.204601
| 35>   H      -9.292759      3.014298     -0.346810
| 36>   H      -2.571249     -3.280360      0.381038
| 37>   H      -7.638684      5.607435     -0.508201
| 38>   H      -4.299567     -5.810435      0.525132
| 39>   H      -2.334644     -6.707914      0.665653
| 40> *
| 41> 
| 42>                          ****END OF INPUT****
================================================================================

                       *****************************
                       * Geometry Optimization Run *
                       *****************************

Geometry optimization settings:
Update method            Update   .... BFGS
Choice of coordinates    CoordSys .... Z-matrix Internals
Initial Hessian          InHess   .... Almoef's Model

Convergence Tolerances:
Energy Change            TolE     ....  5.0000e-06 Eh
Max. Gradient            TolMAXG  ....  3.0000e-04 Eh/bohr
RMS Gradient             TolRMSG  ....  1.0000e-04 Eh/bohr
Max. Displacement        TolMAXD  ....  4.0000e-03 bohr
RMS Displacement         TolRMSD  ....  2.0000e-03 bohr
Strict Convergence                ....  False
------------------------------------------------------------------------------
                        ORCA OPTIMIZATION COORDINATE SETUP
------------------------------------------------------------------------------

The optimization will be done in new redundant internal coordinates
Making redundant internal coordinates   ...  (new redundants) done
Evaluating the initial hessian          ...  (Almloef) done
Evaluating the coordinates              ...  done
Calculating the B-matrix                .... done
Calculating the G-matrix                .... done
Diagonalizing the G-matrix              .... done
Small eigenvalue found = 5.096e-03
Small eigenvalue found = 1.107e-02
Small eigenvalue found = 1.515e-02
The first mode is                       ....   97
The number of degrees of freedom        ....  105

    -----------------------------------------------------------------
                    Redundant Internal Coordinates


    -----------------------------------------------------------------
         Definition                    Initial Value    Approx d2E/dq
    -----------------------------------------------------------------
      1. B(C   1,C   0)                  1.4128         0.574660   
      2. B(C   2,C   1)                  1.3827         0.641855   
      3. B(C   3,C   2)                  1.4105         0.579424   
      4. B(C   4,C   3)                  1.4307         0.538005   
      5. B(C   5,C   4)                  1.3660         0.682333   
      6. B(C   6,C   5)                  1.4371         0.525480   
      7. B(C   7,C   6)                  1.4322         0.535087   
      8. B(C   8,C   7)                  1.4129         0.574309   
      9. B(C   9,C   8)                  1.3847         0.637045   
     10. B(C  10,C   9)                  1.4080         0.584759   
     11. B(C  11,C  10)                  1.4301         0.539207   
     12. B(C  12,C  11)                  1.3661         0.682175   
     13. B(C  13,C  12)                  1.4370         0.525786   
     14. B(C  13,C   0)                  1.4325         0.534398   
     15. B(C  14,C   3)                  1.4291         0.541157   
     16. B(C  14,C  13)                  1.4388         0.522339   
     17. B(C  15,C  14)                  1.4358         0.528054   
     18. B(C  15,C  10)                  1.4270         0.545417   
     19. B(C  15,C   6)                  1.4378         0.524084   
     20. B(C  16,C   0)                  1.4557         0.490764   
     21. B(C  17,C   7)                  1.4629         0.478062   
     22. B(C  18,C  16)                  1.3475         0.730481   
     23. B(C  19,C  17)                  1.3482         0.728465   
     24. B(O  20,C  19)                  1.3538         0.639262   
     25. B(N  21,C  18)                  1.4532         0.443655   
     26. B(O  22,N  21)                  1.2261         0.915188   
     27. B(O  23,N  21)                  1.2251         0.918457   
     28. B(H  24,C   1)                  1.0917         0.357869   
     29. B(H  25,C   2)                  1.0931         0.356010   
     30. B(H  26,C   4)                  1.0933         0.355712   
     31. B(H  27,C   5)                  1.0894         0.360847   
     32. B(H  28,C   8)                  1.0918         0.357720   
     33. B(H  29,C   9)                  1.0936         0.355383   
     34. B(H  30,C  11)                  1.0936         0.355318   
     35. B(H  31,C  12)                  1.0894         0.360834   
     36. B(H  32,C  16)                  1.0911         0.358625   
     37. B(H  33,C  17)                  1.0908         0.358993   
     38. B(H  34,C  18)                  1.0878         0.363001   
     39. B(H  35,C  19)                  1.0959         0.352438   
     40. B(H  36,O  20)                  0.9646         0.511192   
     41. A(C   1,C   0,C  16)          120.3525         0.410707   
     42. A(C   1,C   0,C  13)          118.8237         0.416969   
     43. A(C  13,C   0,C  16)          120.8237         0.405461   
     44. A(C   0,C   1,H  24)          119.3214         0.348047   
     45. A(C   2,C   1,H  24)          118.7323         0.354613   
     46. A(C   0,C   1,C   2)          121.9463         0.430856   
     47. A(C   3,C   2,H  25)          119.1584         0.348226   
     48. A(C   1,C   2,C   3)          120.7406         0.431495   
     49. A(C   1,C   2,H  25)          120.1011         0.354300   
     50. A(C   2,C   3,C  14)          119.3362         0.418518   
     51. A(C   2,C   3,C   4)          121.7395         0.418083   
     52. A(C   4,C   3,C  14)          118.9244         0.413033   
     53. A(C   3,C   4,H  26)          118.4475         0.343862   
     54. A(C   5,C   4,H  26)          120.0826         0.357946   
     55. A(C   3,C   4,C   5)          121.4698         0.430488   
     56. A(C   6,C   5,H  27)          119.6448         0.343331   
     57. A(C   4,C   5,C   6)          121.9602         0.428672   
     58. A(C   4,C   5,H  27)          118.3951         0.358820   
     59. A(C   5,C   6,C   7)          122.5944         0.410488   
     60. A(C   7,C   6,C  15)          119.9612         0.410295   
     61. A(C   5,C   6,C  15)          117.4443         0.408980   
     62. A(C   6,C   7,C   8)          117.8845         0.417019   
     63. A(C   6,C   7,C  17)          121.0978         0.403680   
     64. A(C   8,C   7,C  17)          121.0177         0.408759   
     65. A(C   9,C   8,H  28)          118.1575         0.354136   
     66. A(C   7,C   8,H  28)          119.5503         0.347987   
     67. A(C   7,C   8,C   9)          122.2922         0.430227   
     68. A(C  10,C   9,H  29)          119.0872         0.348660   
     69. A(C   8,C   9,H  29)          119.8453         0.353743   
     70. A(C   8,C   9,C  10)          121.0675         0.431622   
     71. A(C  11,C  10,C  15)          119.0961         0.413772   
     72. A(C   9,C  10,C  15)          118.8135         0.419789   
     73. A(C   9,C  10,C  11)          122.0904         0.418933   
     74. A(C  12,C  11,H  30)          119.8823         0.357865   
     75. A(C  10,C  11,C  12)          121.6828         0.430642   
     76. A(C  10,C  11,H  30)          118.4349         0.343927   
     77. A(C  11,C  12,H  31)          118.5753         0.358804   
     78. A(C  11,C  12,C  13)          121.5053         0.428699   
     79. A(C  13,C  12,H  31)          119.9194         0.343362   
     80. A(C   0,C  13,C  12)          122.9488         0.410437   
     81. A(C  12,C  13,C  14)          117.7412         0.408781   
     82. A(C   0,C  13,C  14)          119.3100         0.409959   
     83. A(C  13,C  14,C  15)          120.7851         0.409092   
     84. A(C   3,C  14,C  15)          119.3717         0.411667   
     85. A(C   3,C  14,C  13)          119.8432         0.410873   
     86. A(C  10,C  15,C  14)          119.1895         0.412240   
     87. A(C   6,C  15,C  14)          120.8295         0.409334   
     88. A(C   6,C  15,C  10)          119.9810         0.411688   
     89. A(C  18,C  16,H  32)          113.7658         0.362634   
     90. A(C   0,C  16,H  32)          118.8456         0.339077   
     91. A(C   0,C  16,C  18)          127.3885         0.428660   
     92. A(C  19,C  17,H  33)          114.6031         0.362526   
     93. A(C   7,C  17,H  33)          118.6389         0.337654   
     94. A(C   7,C  17,C  19)          126.7580         0.426438   
     95. A(N  21,C  18,H  34)          111.5132         0.332084   
     96. A(C  16,C  18,H  34)          128.1996         0.363386   
     97. A(C  16,C  18,N  21)          120.2871         0.418257   
     98. A(O  20,C  19,H  35)          115.9120         0.351276   
     99. A(C  17,C  19,H  35)          123.0413         0.361388   
    100. A(C  17,C  19,O  20)          121.0467         0.446412   
    101. A(C  19,O  20,H  36)          110.0453         0.370982   
    102. A(O  22,N  21,O  23)          124.7362         0.487392   
    103. A(C  18,N  21,O  23)          119.5434         0.430033   
    104. A(C  18,N  21,O  22)          115.7204         0.429758   
    105. D(H  24,C   1,C   0,C  16)      0.1393         0.022669   
    106. D(H  24,C   1,C   0,C  13)   -179.9127         0.022669   
    107. D(C   2,C   1,C   0,C  16)   -179.8887         0.022669   
    108. D(C   2,C   1,C   0,C  13)      0.0593         0.022669   
    109. D(H  25,C   2,C   1,C   0)    179.9869         0.028635   
    110. D(C   3,C   2,C   1,H  24)    179.9780         0.028635   
    111. D(C   3,C   2,C   1,C   0)      0.0058         0.028635   
    112. D(H  25,C   2,C   1,H  24)     -0.0409         0.028635   
    113. D(C  14,C   3,C   2,H  25)    179.9845         0.023064   
    114. D(C  14,C   3,C   2,C   1)     -0.0343         0.023064   
    115. D(C   4,C   3,C   2,H  25)     -0.0189         0.023064   
    116. D(C   4,C   3,C   2,C   1)    179.9624         0.023064   
    117. D(H  26,C   4,C   3,C   2)      0.0309         0.019773   
    118. D(C   5,C   4,C   3,C   2)   -179.9541         0.019773   
    119. D(C   5,C   4,C   3,C  14)      0.0425         0.019773   
    120. D(H  26,C   4,C   3,C  14)   -179.9725         0.019773   
    121. D(H  27,C   5,C   4,H  26)      0.0368         0.032654   
    122. D(C   6,C   5,C   4,C   3)     -0.0019         0.032654   
    123. D(C   6,C   5,C   4,H  26)   -179.9866         0.032654   
    124. D(H  27,C   5,C   4,C   3)   -179.9784         0.032654   
    125. D(C  15,C   6,C   5,H  27)    179.9255         0.018840   
    126. D(C   7,C   6,C   5,H  27)     -0.0591         0.018840   
    127. D(C   7,C   6,C   5,C   4)    179.9646         0.018840   
    128. D(C  15,C   6,C   5,C   4)     -0.0507         0.018840   
    129. D(C  17,C   7,C   6,C  15)    179.9557         0.019553   
    130. D(C  17,C   7,C   6,C   5)     -0.0600         0.019553   
    131. D(C   8,C   7,C   6,C  15)     -0.0224         0.019553   
    132. D(C   8,C   7,C   6,C   5)    179.9619         0.019553   
    133. D(H  28,C   8,C   7,C   6)    179.9319         0.022640   
    134. D(C   9,C   8,C   7,C  17)    179.9959         0.022640   
    135. D(C   9,C   8,C   7,C   6)     -0.0260         0.022640   
    136. D(H  28,C   8,C   7,C  17)     -0.0461         0.022640   
    137. D(H  29,C   9,C   8,H  28)      0.0663         0.028179   
    138. D(H  29,C   9,C   8,C   7)   -179.9751         0.028179   
    139. D(C  10,C   9,C   8,H  28)   -179.9017         0.028179   
    140. D(C  10,C   9,C   8,C   7)      0.0568         0.028179   
    141. D(C  15,C  10,C   9,H  29)    179.9948         0.023511   
    142. D(C  15,C  10,C   9,C   8)     -0.0370         0.023511   
    143. D(C  11,C  10,C   9,H  29)     -0.0275         0.023511   
    144. D(C  11,C  10,C   9,C   8)    179.9407         0.023511   
    145. D(H  30,C  11,C  10,C  15)   -179.9762         0.019864   
    146. D(H  30,C  11,C  10,C   9)      0.0462         0.019864   
    147. D(C  12,C  11,C  10,C  15)      0.0376         0.019864   
    148. D(C  12,C  11,C  10,C   9)   -179.9401         0.019864   
    149. D(H  31,C  12,C  11,H  30)     -0.0340         0.032637   
    150. D(H  31,C  12,C  11,C  10)    179.9521         0.032637   
    151. D(C  13,C  12,C  11,H  30)    179.9799         0.032637   
    152. D(C  13,C  12,C  11,C  10)     -0.0340         0.032637   
    153. D(C  14,C  13,C  12,H  31)   -179.9956         0.018863   
    154. D(C   0,C  13,C  12,H  31)     -0.0444         0.018863   
    155. D(C   0,C  13,C  12,C  11)    179.9415         0.018863   
    156. D(C  14,C  13,C   0,C  16)    179.8533         0.019502   
    157. D(C  14,C  13,C   0,C   1)     -0.0944         0.019502   
    158. D(C  14,C  13,C  12,C  11)     -0.0098         0.018863   
    159. D(C  12,C  13,C   0,C  16)     -0.0972         0.019502   
    160. D(C  12,C  13,C   0,C   1)    179.9551         0.019502   
    161. D(C   3,C  14,C  13,C  12)   -179.9798         0.018610   
    162. D(C   3,C  14,C  13,C   0)      0.0672         0.018610   
    163. D(C  15,C  14,C   3,C   4)     -0.0287         0.020013   
    164. D(C  15,C  14,C   3,C   2)    179.9681         0.020013   
    165. D(C  13,C  14,C   3,C   4)   -179.9996         0.020013   
    166. D(C  15,C  14,C  13,C   0)   -179.9034         0.018610   
    167. D(C  13,C  14,C   3,C   2)     -0.0029         0.020013   
    168. D(C  15,C  14,C  13,C  12)      0.0497         0.018610   
    169. D(C  10,C  15,C  14,C  13)     -0.0462         0.019030   
    170. D(C   6,C  15,C  14,C  13)    179.9461         0.019030   
    171. D(C   6,C  15,C  14,C   3)     -0.0246         0.019030   
    172. D(C  14,C  15,C  10,C  11)      0.0028         0.020339   
    173. D(C  14,C  15,C  10,C   9)    179.9811         0.020339   
    174. D(C   6,C  15,C  10,C  11)   -179.9896         0.020339   
    175. D(C   6,C  15,C  10,C   9)     -0.0112         0.020339   
    176. D(C  14,C  15,C   6,C   7)   -179.9516         0.018738   
    177. D(C  14,C  15,C   6,C   5)      0.0633         0.018738   
    178. D(C  10,C  15,C  14,C   3)    179.9832         0.019030   
    179. D(C  10,C  15,C   6,C   7)      0.0406         0.018738   
    180. D(C  10,C  15,C   6,C   5)   -179.9445         0.018738   
    181. D(H  32,C  16,C   0,C  13)      0.4588         0.016400   
    182. D(H  32,C  16,C   0,C   1)   -179.5943         0.016400   
    183. D(C  18,C  16,C   0,C  13)   -179.4768         0.016400   
    184. D(C  18,C  16,C   0,C   1)      0.4701         0.016400   
    185. D(H  33,C  17,C   7,C   8)    179.6333         0.015560   
    186. D(H  33,C  17,C   7,C   6)     -0.3441         0.015560   
    187. D(C  19,C  17,C   7,C   8)     -0.3449         0.015560   
    188. D(C  19,C  17,C   7,C   6)    179.6777         0.015560   
    189. D(H  34,C  18,C  16,H  32)   -179.8761         0.037865   
    190. D(H  34,C  18,C  16,C   0)      0.0623         0.037865   
    191. D(N  21,C  18,C  16,H  32)      0.0348         0.037865   
    192. D(N  21,C  18,C  16,C   0)    179.9732         0.037865   
    193. D(H  35,C  19,C  17,H  33)    179.9154         0.037638   
    194. D(H  35,C  19,C  17,C   7)     -0.1057         0.037638   
    195. D(O  20,C  19,C  17,H  33)     -0.0868         0.037638   
    196. D(O  20,C  19,C  17,C   7)    179.8921         0.037638   
    197. D(H  36,O  20,C  19,H  35)     -0.2565         0.030121   
    198. D(H  36,O  20,C  19,C  17)    179.7456         0.030121   
    199. D(O  23,N  21,C  18,H  34)   -179.9879         0.015500   
    200. D(O  23,N  21,C  18,C  16)      0.0874         0.015500   
    201. D(O  22,N  21,C  18,H  34)      0.0231         0.015500   
    202. D(O  22,N  21,C  18,C  16)   -179.9016         0.015500   
    -----------------------------------------------------------------

Number of atoms                         .... 37
Number of degrees of freedom            .... 202

         *************************************************************
         *                GEOMETRY OPTIMIZATION CYCLE   1            *
         *************************************************************
---------------------------------
CARTESIAN COORDINATES (ANGSTROEM)
---------------------------------
  C     -7.110798    2.747902   -0.244903
  C     -5.850411    3.386136   -0.244055
  C     -4.669692    2.673761   -0.143089
  C     -4.683063    1.267357   -0.036217
  C     -3.474414    0.508988    0.068561
  C     -3.493750   -0.853058    0.170878
  C     -4.722745   -1.597925    0.179102
  C     -4.758827   -3.025741    0.284992
  C     -6.023057   -3.656700    0.284121
  C     -7.205804   -2.943329    0.185899
  C     -7.200858   -1.539300    0.079980
  C     -8.408890   -0.780962   -0.023845
  C     -8.394335    0.581110   -0.127443
  C     -7.162163    1.320392   -0.136487
  C     -5.934562    0.577342   -0.032134
  C     -5.949036   -0.854306    0.075923
  C     -8.332320    3.532005   -0.355410
  C     -3.526515   -3.806962    0.390256
  C     -8.437774    4.870165   -0.473117
  C     -3.427698   -5.147000    0.500748
  O     -2.220430   -5.753147    0.588962
  N     -9.745311    5.496255   -0.573842
  O     -9.743636    6.717777   -0.679641
  O    -10.752415    4.799062   -0.549419
  H     -5.801857    4.473752   -0.324826
  H     -3.710825    3.198599   -0.145665
  H     -2.521395    1.044833    0.065122
  H     -2.543560   -1.380315    0.248395
  H     -6.082214   -4.744086    0.362422
  H     -8.162647   -3.472835    0.189535
  H     -9.362196   -1.316904   -0.019269
  H     -9.344753    1.108029   -0.204601
  H     -9.292759    3.014298   -0.346810
  H     -2.571249   -3.280360    0.381038
  H     -7.638684    5.607435   -0.508201
  H     -4.299567   -5.810435    0.525132
  H     -2.334644   -6.707914    0.665653

----------------------------
CARTESIAN COORDINATES (A.U.)
----------------------------
  NO LB      ZA    FRAG     MASS         X           Y           Z
   0 C     6.0000    0    12.011  -13.437461    5.192782   -0.462800
   1 C     6.0000    0    12.011  -11.055675    6.398870   -0.461197
   2 C     6.0000    0    12.011   -8.824439    5.052676   -0.270399
   3 C     6.0000    0    12.011   -8.849707    2.394958   -0.068440
   4 C     6.0000    0    12.011   -6.565691    0.961848    0.129562
   5 C     6.0000    0    12.011   -6.602231   -1.612046    0.322913
   6 C     6.0000    0    12.011   -8.924695   -3.019641    0.338454
   7 C     6.0000    0    12.011   -8.992880   -5.717822    0.538557
   8 C     6.0000    0    12.011  -11.381928   -6.910162    0.536911
   9 C     6.0000    0    12.011  -13.616996   -5.562086    0.351298
  10 C     6.0000    0    12.011  -13.607650   -2.908855    0.151140
  11 C     6.0000    0    12.011  -15.890499   -1.475804   -0.045061
  12 C     6.0000    0    12.011  -15.862994    1.098139   -0.240832
  13 C     6.0000    0    12.011  -13.534527    2.495179   -0.257923
  14 C     6.0000    0    12.011  -11.214697    1.091018   -0.060724
  15 C     6.0000    0    12.011  -11.242049   -1.614404    0.143474
  16 C     6.0000    0    12.011  -15.745803    6.674522   -0.671628
  17 C     6.0000    0    12.011   -6.664148   -7.194116    0.737477
  18 C     6.0000    0    12.011  -15.945082    9.203278   -0.894062
  19 C     6.0000    0    12.011   -6.477410   -9.726420    0.946277
  20 O     8.0000    0    15.999   -4.196005  -10.871872    1.112977
  21 N     7.0000    0    14.007  -18.415969   10.386417   -1.084404
  22 O     8.0000    0    15.999  -18.412804   12.694759   -1.284335
  23 O     8.0000    0    15.999  -20.319120    9.068913   -1.038251
  24 H     1.0000    0     1.008  -10.963921    8.454166   -0.613832
  25 H     1.0000    0     1.008   -7.012443    6.044476   -0.275267
  26 H     1.0000    0     1.008   -4.764746    1.974448    0.123063
  27 H     1.0000    0     1.008   -4.806632   -2.608417    0.469399
  28 H     1.0000    0     1.008  -11.493719   -8.965023    0.684878
  29 H     1.0000    0     1.008  -15.425167   -6.562707    0.358169
  30 H     1.0000    0     1.008  -17.691986   -2.488588   -0.036413
  31 H     1.0000    0     1.008  -17.659024    2.093871   -0.386640
  32 H     1.0000    0     1.008  -17.560770    5.696198   -0.655376
  33 H     1.0000    0     1.008   -4.858956   -6.198982    0.720057
  34 H     1.0000    0     1.008  -14.435021   10.596516   -0.960361
  35 H     1.0000    0     1.008   -8.125004  -10.980131    0.992356
  36 H     1.0000    0     1.008   -4.411838  -12.676120    1.257902

--------------------------------
INTERNAL COORDINATES (ANGSTROEM)
--------------------------------
 C      0   0   0     0.000000000000     0.00000000     0.00000000
 C      1   0   0     1.412769884882     0.00000000     0.00000000
 C      2   1   0     1.382667577815   121.94630104     0.00000000
 C      3   2   1     1.410522108739   120.74055823     0.00000000
 C      4   3   2     1.430711142980   121.73946110   179.96238119
 C      5   4   3     1.366020481362   121.46983259   180.04589019
 C      6   5   4     1.437123234761   121.96018456     0.00000000
 C      7   6   5     1.432191723436   122.59441689   179.96459990
 C      8   7   6     1.412935777458   117.88451644   179.96189991
 C      9   8   7     1.384715209324   122.29217968   359.97398588
 C     10   9   8     1.408027247719   121.06752552     0.05683521
 C     11  10   9     1.430104005271   122.09035967   179.94074489
 C     12  11  10     1.366083645614   121.68279359   180.05990904
 C      1   2   3     1.432542213124   118.82374406     0.05931430
 C      4   3   2     1.429121099877   119.33616759   359.96574220
 C     11  10   9     1.426986881148   118.81352645   359.96304178
 C      1   2   3     1.455728445879   120.35250493   180.11134526
 C      8   7   6     1.462866920086   121.09776259   359.93996247
 C     17   1   2     1.347459709811   127.38852425     0.47013946
 C     18   8   7     1.348211824231   126.75803703   179.67774736
 O     20  18   8     1.353769522197   121.04668762   179.89210229
 N     19  17   1     1.453198960946   120.28713792   179.97315246
 O     22  19  17     1.226096338185   115.72041275   180.09840595
 O     22  19  17     1.225125719669   119.54338900     0.08737743
 H      2   1   3     1.091691352358   119.32143174   180.02796610
 H      3   2   1     1.093109091404   120.10106648   179.98686783
 H      5   4   3     1.093337507409   118.44754861     0.03087836
 H      6   5   4     1.089435571954   118.39505036   180.02157082
 H      9   8   7     1.091805344485   119.55029134   179.93193107
 H     10   9   8     1.093589663073   119.84531569   180.02485453
 H     12  11  10     1.093639381504   118.43494719     0.04618303
 H     13  12  11     1.089445438858   118.57532692   179.95205134
 H     17   1   2     1.091117578710   118.84561447   180.40572514
 H     18   8   7     1.090838103792   118.63885306   359.65592882
 H     19  17   1     1.087815594692   128.19961243     0.06225070
 H     20  18   8     1.095854065030   123.04132612   359.89434935
 H     21  20  18     0.964627581798   110.04525144   179.74563499

---------------------------
INTERNAL COORDINATES (A.U.)
---------------------------
 C      0   0   0     0.000000000000     0.00000000     0.00000000
 C      1   0   0     2.669748172678     0.00000000     0.00000000
 C      2   1   0     2.612863056323   121.94630104     0.00000000
 C      3   2   1     2.665500491357   120.74055823     0.00000000
 C      4   3   2     2.703652236981   121.73946110   179.96238119
 C      5   4   3     2.581404603102   121.46983259   180.04589019
 C      6   5   4     2.715769334393   121.96018456     0.00000000
 C      7   6   5     2.706450128564   122.59441689   179.96459990
 C      8   7   6     2.670061664215   117.88451644   179.96189991
 C      9   8   7     2.616732519098   122.29217968   359.97398588
 C     10   9   8     2.660785887287   121.06752552     0.05683521
 C     11  10   9     2.702504912987   122.09035967   179.94074489
 C     12  11  10     2.581523966238   121.68279359   180.05990904
 C      1   2   3     2.707112458085   118.82374406     0.05931430
 C      4   3   2     2.700647490977   119.33616759   359.96574220
 C     11  10   9     2.696614402068   118.81352645   359.96304178
 C      1   2   3     2.750928088071   120.35250493   180.11134526
 C      8   7   6     2.764417849335   121.09776259   359.93996247
 C     17   1   2     2.546329828037   127.38852425     0.47013946
 C     18   8   7     2.547751118311   126.75803703   179.67774736
 O     20  18   8     2.558253645401   121.04668762   179.89210229
 N     19  17   1     2.746148054287   120.28713792   179.97315246
 O     22  19  17     2.316986292973   115.72041275   180.09840595
 O     22  19  17     2.315152089797   119.54338900     0.08737743
 H      2   1   3     2.062997678727   119.32143174   180.02796610
 H      3   2   1     2.065676817252   120.10106648   179.98686783
 H      5   4   3     2.066108460947   118.44754861     0.03087836
 H      6   5   4     2.058734871544   118.39505036   180.02157082
 H      9   8   7     2.063213092628   119.55029134   179.93193107
 H     10   9   8     2.066584966096   119.84531569   180.02485453
 H     12  11  10     2.066678920313   118.43494719     0.04618303
 H     13  12  11     2.058753517292   118.57532692   179.95205134
 H     17   1   2     2.061913403669   118.84561447   180.40572514
 H     18   8   7     2.061385272612   118.63885306   359.65592882
 H     19  17   1     2.055673558177   128.19961243     0.06225070
 H     20  18   8     2.070864065650   123.04132612   359.89434935
 H     21  20  18     1.822881950825   110.04525144   179.74563499

---------------------
BASIS SET INFORMATION
---------------------
There are 4 groups of distinct atoms

 Group   1 Type C   : 7s4p1d contracted to 3s2p1d pattern {511/31/1}
 Group   2 Type O   : 7s4p1d contracted to 3s2p1d pattern {511/31/1}
 Group   3 Type N   : 7s4p1d contracted to 3s2p1d pattern {511/31/1}
 Group   4 Type H   : 4s1p contracted to 2s1p pattern {31/1}

Atom   0C    basis set group =>   1
Atom   1C    basis set group =>   1
Atom   2C    basis set group =>   1
Atom   3C    basis set group =>   1
Atom   4C    basis set group =>   1
Atom   5C    basis set group =>   1
Atom   6C    basis set group =>   1
Atom   7C    basis set group =>   1
Atom   8C    basis set group =>   1
Atom   9C    basis set group =>   1
Atom  10C    basis set group =>   1
Atom  11C    basis set group =>   1
Atom  12C    basis set group =>   1
Atom  13C    basis set group =>   1
Atom  14C    basis set group =>   1
Atom  15C    basis set group =>   1
Atom  16C    basis set group =>   1
Atom  17C    basis set group =>   1
Atom  18C    basis set group =>   1
Atom  19C    basis set group =>   1
Atom  20O    basis set group =>   2
Atom  21N    basis set group =>   3
Atom  22O    basis set group =>   2
Atom  23O    basis set group =>   2
Atom  24H    basis set group =>   4
Atom  25H    basis set group =>   4
Atom  26H    basis set group =>   4
Atom  27H    basis set group =>   4
Atom  28H    basis set group =>   4
Atom  29H    basis set group =>   4
Atom  30H    basis set group =>   4
Atom  31H    basis set group =>   4
Atom  32H    basis set group =>   4
Atom  33H    basis set group =>   4
Atom  34H    basis set group =>   4
Atom  35H    basis set group =>   4
Atom  36H    basis set group =>   4
---------------------------------
AUXILIARY/J BASIS SET INFORMATION
---------------------------------
There are 4 groups of distinct atoms

 Group   1 Type C   : 12s5p4d2f1g contracted to 6s4p3d1f1g pattern {711111/2111/211/2/1}
 Group   2 Type O   : 12s5p4d2f1g contracted to 6s4p3d1f1g pattern {711111/2111/211/2/1}
 Group   3 Type N   : 12s5p4d2f1g contracted to 6s4p3d1f1g pattern {711111/2111/211/2/1}
 Group   4 Type H   : 5s2p1d contracted to 3s1p1d pattern {311/2/1}

Atom   0C    basis set group =>   1
Atom   1C    basis set group =>   1
Atom   2C    basis set group =>   1
Atom   3C    basis set group =>   1
Atom   4C    basis set group =>   1
Atom   5C    basis set group =>   1
Atom   6C    basis set group =>   1
Atom   7C    basis set group =>   1
Atom   8C    basis set group =>   1
Atom   9C    basis set group =>   1
Atom  10C    basis set group =>   1
Atom  11C    basis set group =>   1
Atom  12C    basis set group =>   1
Atom  13C    basis set group =>   1
Atom  14C    basis set group =>   1
Atom  15C    basis set group =>   1
Atom  16C    basis set group =>   1
Atom  17C    basis set group =>   1
Atom  18C    basis set group =>   1
Atom  19C    basis set group =>   1
Atom  20O    basis set group =>   2
Atom  21N    basis set group =>   3
Atom  22O    basis set group =>   2
Atom  23O    basis set group =>   2
Atom  24H    basis set group =>   4
Atom  25H    basis set group =>   4
Atom  26H    basis set group =>   4
Atom  27H    basis set group =>   4
Atom  28H    basis set group =>   4
Atom  29H    basis set group =>   4
Atom  30H    basis set group =>   4
Atom  31H    basis set group =>   4
Atom  32H    basis set group =>   4
Atom  33H    basis set group =>   4
Atom  34H    basis set group =>   4
Atom  35H    basis set group =>   4
Atom  36H    basis set group =>   4


           ************************************************************
           *        Program running with 8 parallel MPI-processes     *
           *              working on a common directory               *
           ************************************************************
------------------------------------------------------------------------------
                           ORCA GTO INTEGRAL CALCULATION
                           -- RI-GTO INTEGRALS CHOSEN --
------------------------------------------------------------------------------
------------------------------------------------------------------------------
                   ___                                                        
                  /   \      - P O W E R E D   B Y -                         
                 /     \                                                     
                 |  |  |   _    _      __       _____    __    __             
                 |  |  |  | |  | |    /  \     |  _  \  |  |  /  |          
                  \  \/   | |  | |   /    \    | | | |  |  | /  /          
                 / \  \   | |__| |  /  /\  \   | |_| |  |  |/  /          
                |  |  |   |  __  | /  /__\  \  |    /   |      \           
                |  |  |   | |  | | |   __   |  |    \   |  |\   \          
                \     /   | |  | | |  |  |  |  | |\  \  |  | \   \       
                 \___/    |_|  |_| |__|  |__|  |_| \__\ |__|  \__/        
                                                                              
                      - O R C A' S   B I G   F R I E N D -                    
                                      &                                       
                       - I N T E G R A L  F E E D E R -                       
                                                                              
 v1 FN, 2020, v2 2021                                                         
------------------------------------------------------------------------------


Reading SHARK input file NO2_OH_2.SHARKINP.tmp ... ok
----------------------
SHARK INTEGRAL PACKAGE
----------------------

Number of atoms                             ...     37
Number of basis functions                   ...    401
Number of shells                            ...    183
Maximum angular momentum                    ...      2
Integral batch strategy                     ... SHARK/LIBINT Hybrid
RI-J (if used) integral strategy            ... SPLIT-RIJ (Revised 2003 algorithm where possible)
Printlevel                                  ...      1
Contraction scheme used                     ... SEGMENTED contraction
Coulomb Range Separation                    ... NOT USED
Exchange Range Separation                   ... NOT USED
Finite Nucleus Model                        ... NOT USED
Auxiliary Coulomb fitting basis             ... AVAILABLE
   # of basis functions in Aux-J            ...   1319
   # of shells in Aux-J                     ...    425
   Maximum angular momentum in Aux-J        ...      4
Auxiliary J/K fitting basis                 ... NOT available
Auxiliary Correlation fitting basis         ... NOT available
Auxiliary 'external' fitting basis          ... NOT available
Integral threshold                          ...     1.000000e-12
Primitive cut-off                           ...     1.000000e-14
Primitive pair pre-selection threshold      ...     1.000000e-14

Calculating pre-screening integrals         ... done (  0.0 sec) Dimension = 183
Organizing shell pair data                  ... done (  0.5 sec)
Shell pair information
Total number of shell pairs                 ...     16836
Shell pairs after pre-screening             ...     12251
Total number of primitive shell pairs       ...     62832
Primitive shell pairs kept                  ...     29515
          la=0 lb=0:   3554 shell pairs
          la=1 lb=0:   4479 shell pairs
          la=1 lb=1:   1453 shell pairs
          la=2 lb=0:   1565 shell pairs
          la=2 lb=1:   1011 shell pairs
          la=2 lb=2:    189 shell pairs

Calculating one electron integrals          ... done (  0.0 sec)
Calculating RI/J V-Matrix + Cholesky decomp.... done ( 12.2 sec)
Calculating Nuclear repulsion               ... done (  0.0 sec) ENN=   1790.279091997113 Eh

SHARK setup successfully completed in  13.5 seconds

Maximum memory used throughout the entire GTOINT-calculation: 22.5 MB


           ************************************************************
           *        Program running with 8 parallel MPI-processes     *
           *              working on a common directory               *
           ************************************************************
-------------------------------------------------------------------------------
                                 ORCA SCF
-------------------------------------------------------------------------------

------------
SCF SETTINGS
------------
Hamiltonian:
 Density Functional     Method          .... DFT(GTOs)
 Exchange Functional    Exchange        .... B88
   X-Alpha parameter    XAlpha          ....  0.666667
   Becke's b parameter  XBeta           ....  0.004200
 Correlation Functional Correlation     .... LYP
 LDA part of GGA corr.  LDAOpt          .... VWN-5
 Gradients option       PostSCFGGA      .... off
 Hybrid DFT is turned on
   Fraction HF Exchange ScalHFX         ....  0.200000
   Scaling of DF-GGA-X  ScalDFX         ....  0.720000
   Scaling of DF-GGA-C  ScalDFC         ....  0.810000
   Scaling of DF-LDA-C  ScalLDAC        ....  1.000000
   Perturbative correction              ....  0.000000
   Density functional embedding theory  .... OFF
   NL short-range parameter             ....  4.800000
 RI-approximation to the Coulomb term is turned on
   Number of AuxJ basis functions       .... 1319
   RIJ-COSX (HFX calculated with COS-X)).... on


General Settings:
 Integral files         IntName         .... NO2_OH_2
 Hartree-Fock type      HFTyp           .... RHF
 Total Charge           Charge          ....    0
 Multiplicity           Mult            ....    1
 Number of Electrons    NEL             ....  164
 Basis Dimension        Dim             ....  401
 Nuclear Repulsion      ENuc            ....   1790.2790919971 Eh

Convergence Acceleration:
 DIIS                   CNVDIIS         .... on
   Start iteration      DIISMaxIt       ....     0
   Startup error        DIISStart       ....  0.200000
   # of expansion vecs  DIISMaxEq       ....     5
   Bias factor          DIISBfac        ....   1.050
   Max. coefficient     DIISMaxC        ....  10.000
 Trust-Rad. Augm. Hess. CNVTRAH         .... auto
   Auto Start mean grad. ratio tolernc. ....  1.125000
   Auto Start start iteration           ....    20
   Auto Start num. interpolation iter.  ....    10
   Max. Number of Micro iterations      ....    16
   Max. Number of Macro iterations      .... Maxiter - #DIIS iter
   Number of Davidson start vectors     ....     2
   Converg. threshold I  (grad. norm)   ....   2.000e-06
   Converg. threshold II (energy diff.) ....   1.000e-09
   Grad. Scal. Fac. for Micro threshold ....   0.100
   Minimum threshold for Micro iter.    ....   0.010
   NR start threshold (gradient norm)   ....   0.001
   Initial trust radius                 ....   0.400
   Minimum AH scaling param. (alpha)    ....   1.000
   Maximum AH scaling param. (alpha)    .... 1000.000
   Orbital update algorithm             .... Taylor
   White noise on init. David. guess    .... on
   Maximum white noise                  ....   0.010
   Quad. conv. algorithm                .... NR
 SOSCF                  CNVSOSCF        .... on
   Start iteration      SOSCFMaxIt      ....   150
   Startup grad/error   SOSCFStart      ....  0.001000
 Level Shifting         CNVShift        .... on
   Level shift para.    LevelShift      ....    0.2500
   Turn off err/grad.   ShiftErr        ....    0.0000
 Zerner damping         CNVZerner       .... off
 Static damping         CNVDamp         .... on
   Fraction old density DampFac         ....    0.8500
   Max. Damping (<1)    DampMax         ....    0.9800
   Min. Damping (>=0)   DampMin         ....    0.0000
   Turn off err/grad.   DampErr         ....    0.0300
 Fernandez-Rico         CNVRico         .... off

SCF Procedure:
 Maximum # iterations   MaxIter         ....   125
 SCF integral mode      SCFMode         .... Direct
   Integral package                     .... SHARK and LIBINT hybrid scheme
 Reset frequency        DirectResetFreq ....    20
 Integral Threshold     Thresh          ....  1.000e-12 Eh
 Primitive CutOff       TCut            ....  1.000e-14 Eh

Convergence Tolerance:
 Convergence Check Mode ConvCheckMode   .... Total+1el-Energy
 Convergence forced     ConvForced      .... 0
 Energy Change          TolE            ....  1.000e-09 Eh
 1-El. energy change                    ....  1.000e-06 Eh
 Orbital Gradient       TolG            ....  2.000e-06
 Orbital Rotation angle TolX            ....  2.000e-06
 DIIS Error             TolErr          ....  1.000e-08


Diagonalization of the overlap matrix:
Smallest eigenvalue                        ... 1.993e-04
Time for diagonalization                   ...    0.025 sec
Threshold for overlap eigenvalues          ... 1.000e-08
Number of eigenvalues below threshold      ... 0
Time for construction of square roots      ...    0.018 sec
Total time needed                          ...    0.044 sec

Time for model grid setup =    0.299 sec

------------------------------
INITIAL GUESS: MODEL POTENTIAL
------------------------------
Loading Hartree-Fock densities                     ... done
Calculating cut-offs                               ... done
Initializing the effective Hamiltonian             ... done
Setting up the integral package (SHARK)            ... done
Starting the Coulomb interaction                   ... done (   0.2 sec)
Reading the grid                                   ... done
Mapping shells                                     ... done
Starting the XC term evaluation                    ... done (   0.1 sec)
  promolecular density results
     # of electrons  =    163.990872236
     EX              =   -137.875319094
     EC              =     -5.636603025
     EX+EC           =   -143.511922120
Transforming the Hamiltonian                       ... done (   0.0 sec)
Diagonalizing the Hamiltonian                      ... done (   0.0 sec)
Back transforming the eigenvectors                 ... done (   0.0 sec)
Now organizing SCF variables                       ... done
                      ------------------
                      INITIAL GUESS DONE (   0.6 sec)
                      ------------------
-------------------
DFT GRID GENERATION
-------------------

General Integration Accuracy     IntAcc      ... 4.959
Radial Grid Type                 RadialGrid  ... OptM3 with GC (2021)
Angular Grid (max. ang.)         AngularGrid ... 6 (Lebedev-590)
Angular grid pruning method      GridPruning ... 4 (adaptive)
Weight generation scheme         WeightScheme... Becke
Basis function cutoff            BFCut       ... 1.0000e-12
Integration weight cutoff        WCut        ... 1.0000e-14
Angular grids for H and He will be reduced by one unit
Partially contracted basis set               ... off
Rotationally invariant grid construction     ... off

Total number of grid points                  ...   450900
Total number of batches                      ...     7066
Average number of points per batch           ...       63
Average number of grid points per atom       ...    12186
Time for grid setup =    6.505 sec

--------------------
COSX GRID GENERATION
--------------------

GRIDX 1
-------
General Integration Accuracy     IntAcc      ... 4.020
Radial Grid Type                 RadialGrid  ... OptM3 with GC (2021)
Angular Grid (max. ang.)         AngularGrid ... 2 (Lebedev-110)
Angular grid pruning method      GridPruning ... 4 (adaptive)
Weight generation scheme         WeightScheme... Becke
Basis function cutoff            BFCut       ... 1.0000e-12
Integration weight cutoff        WCut        ... 1.0000e-14
Angular grids for H and He will be reduced by one unit
Partially contracted basis set               ... on
Rotationally invariant grid construction     ... off

Total number of grid points                  ...    51789
Total number of batches                      ...      832
Average number of points per batch           ...       62
Average number of grid points per atom       ...     1400
UseSFitting                                  ... on

GRIDX 2
-------
General Integration Accuracy     IntAcc      ... 4.338
Radial Grid Type                 RadialGrid  ... OptM3 with GC (2021)
Angular Grid (max. ang.)         AngularGrid ... 3 (Lebedev-194)
Angular grid pruning method      GridPruning ... 4 (adaptive)
Weight generation scheme         WeightScheme... Becke
Basis function cutoff            BFCut       ... 1.0000e-12
Integration weight cutoff        WCut        ... 1.0000e-14
Angular grids for H and He will be reduced by one unit
Partially contracted basis set               ... on
Rotationally invariant grid construction     ... off

Total number of grid points                  ...   113821
Total number of batches                      ...     1798
Average number of points per batch           ...       63
Average number of grid points per atom       ...     3076
UseSFitting                                  ... on

GRIDX 3
-------
General Integration Accuracy     IntAcc      ... 4.871
Radial Grid Type                 RadialGrid  ... OptM3 with GC (2021)
Angular Grid (max. ang.)         AngularGrid ... 4 (Lebedev-302)
Angular grid pruning method      GridPruning ... 4 (adaptive)
Weight generation scheme         WeightScheme... Becke
Basis function cutoff            BFCut       ... 1.0000e-12
Integration weight cutoff        WCut        ... 1.0000e-14
Angular grids for H and He will be reduced by one unit
Partially contracted basis set               ... on
Rotationally invariant grid construction     ... off

Total number of grid points                  ...   209627
Total number of batches                      ...     3295
Average number of points per batch           ...       63
Average number of grid points per atom       ...     5666
UseSFitting                                  ... on

Time for X-Grid setup             =    4.385 sec

--------------
SCF ITERATIONS
--------------
ITER       Energy         Delta-E        Max-DP      RMS-DP      [F,P]     Damp
               ***  Starting incremental Fock matrix formation  ***
  0  -1048.4559751358   0.000000000000 0.04597771  0.00105690  0.2502265 0.8500
  1  -1048.5797065058  -0.123731369994 0.03868488  0.00095261  0.1628629 0.8500
                               ***Turning on DIIS***
  2  -1048.6594284503  -0.079721944499 0.02454368  0.00073662  0.1083389 0.8500
  3  -1048.7107163519  -0.051287901641 0.01397800  0.00049290  0.0734713 0.8500
  4  -1048.7484821325  -0.037765780627 0.01212096  0.00037481  0.0563141 0.8500
  5  -1048.7776376604  -0.029155527870 0.01066059  0.00030410  0.0459773 0.8500
  6  -1048.8012741570  -0.023636496601 0.00935534  0.00025392  0.0384414 0.8500
  7  -1048.8208528648  -0.019578707787 0.00819171  0.00021525  0.0324478 0.8500
  8  -1048.8372799411  -0.016427076360 0.04734413  0.00122657  0.0272407 0.0000
  9  -1048.9255920676  -0.088312126491 0.00480802  0.00005437  0.0048809 0.0000
 10  -1048.9256413132  -0.000049245607 0.00216422  0.00001974  0.0037892 0.0000
                      *** Initiating the SOSCF procedure ***
                           *** Shutting down DIIS ***
                      *** Re-Reading the Fockian *** 
                      *** Removing any level shift *** 
ITER      Energy       Delta-E        Grad      Rot      Max-DP    RMS-DP
 11  -1048.92567583  -0.0000345169  0.000124  0.000124  0.000481  0.000008
               *** Restarting incremental Fock matrix formation ***
 12  -1048.92566039   0.0000154393  0.000114  0.001155  0.000578  0.000008
 13  -1048.92566042  -0.0000000290  0.000214  0.000306  0.000424  0.000005
 14  -1048.92566127  -0.0000008502  0.000023  0.000281  0.000155  0.000002
 15  -1048.92566125   0.0000000236  0.000050  0.000092  0.000141  0.000001
 16  -1048.92566130  -0.0000000526  0.000019  0.000167  0.000084  0.000001
 17  -1048.92566129   0.0000000105  0.000019  0.000052  0.000068  0.000001
 18  -1048.92566131  -0.0000000180  0.000004  0.000068  0.000018  0.000000
 19  -1048.92566131   0.0000000003  0.000009  0.000039  0.000010  0.000000
 20  -1048.92566131  -0.0000000017  0.000001  0.000008  0.000007  0.000000
 21  -1048.92566131   0.0000000009  0.000001  0.000004  0.000005  0.000000
                  ***Gradient check signals convergence***
              ***Rediagonalizing the Fockian in SOSCF/NRSCF***

               *****************************************************
               *                     SUCCESS                       *
               *           SCF CONVERGED AFTER  22 CYCLES          *
               *****************************************************

Old exchange energy                            =    -27.853846975 Eh
New exchange energy                            =    -27.853841343 Eh
Exchange energy change after final integration =      0.000005632 Eh
Total energy after final integration           =  -1048.925655675 Eh
Final COS-X integration done in                =    13.104 sec

----------------
TOTAL SCF ENERGY
----------------

Total Energy       :        -1048.92565568 Eh          -28542.71817 eV

Components:
Nuclear Repulsion  :         1790.27909200 Eh           48715.97077 eV
Electronic Energy  :        -2839.20474767 Eh          -77258.68894 eV
One Electron Energy:        -4979.99143667 Eh         -135512.45631 eV
Two Electron Energy:         2140.78668899 Eh           58253.76737 eV
Max COSX asymmetry :            0.00000044 Eh               0.00001 eV

Virial components:
Potential Energy   :        -2087.90105726 Eh          -56814.67617 eV
Kinetic Energy     :         1038.97540158 Eh           28271.95800 eV
Virial Ratio       :            2.00957699


DFT components:
N(Alpha)           :       82.000001686786 electrons
N(Beta)            :       82.000001686786 electrons
N(Total)           :      164.000003373572 electrons
E(X)               :     -110.783153220201 Eh       
E(C)               :       -6.628698684242 Eh       
E(XC)              :     -117.411851904444 Eh       
DFET-embed. en.    :        0.000000000000 Eh       

---------------
SCF CONVERGENCE
---------------

  Last Energy change         ...   -6.7143e-10  Tolerance :   1.0000e-09
  Last MAX-Density change    ...    5.3291e-15  Tolerance :   1.0000e-08
  Last RMS-Density change    ...    4.8291e-17  Tolerance :   1.0000e-09
  Last Orbital Gradient      ...    3.0378e-07  Tolerance :   2.0000e-06
  Last Orbital Rotation      ...    2.2309e-06  Tolerance :   2.0000e-06

             **** THE GBW FILE WAS UPDATED (NO2_OH_2.gbw) ****
             **** DENSITY NO2_OH_2.scfp WAS UPDATED ****
             **** ENERGY FILE WAS UPDATED (NO2_OH_2.en.tmp) ****
             **** THE GBW FILE WAS UPDATED (NO2_OH_2.gbw) ****
             **** DENSITY NO2_OH_2.scfp WAS UPDATED ****
----------------
ORBITAL ENERGIES
----------------

  NO   OCC          E(Eh)            E(eV) 
   0   2.0000     -19.185390      -522.0610 
   1   2.0000     -19.141815      -520.8753 
   2   2.0000     -19.141484      -520.8662 
   3   2.0000     -14.540251      -395.6604 
   4   2.0000     -10.263923      -279.2955 
   5   2.0000     -10.232792      -278.4484 
   6   2.0000     -10.221920      -278.1526 
   7   2.0000     -10.217474      -278.0316 
   8   2.0000     -10.217368      -278.0287 
   9   2.0000     -10.215181      -277.9692 
  10   2.0000     -10.211572      -277.8710 
  11   2.0000     -10.210834      -277.8509 
  12   2.0000     -10.210034      -277.8292 
  13   2.0000     -10.208920      -277.7988 
  14   2.0000     -10.206200      -277.7248 
  15   2.0000     -10.204358      -277.6747 
  16   2.0000     -10.204164      -277.6694 
  17   2.0000     -10.203298      -277.6459 
  18   2.0000     -10.203247      -277.6445 
  19   2.0000     -10.202079      -277.6127 
  20   2.0000     -10.201475      -277.5962 
  21   2.0000     -10.201106      -277.5862 
  22   2.0000     -10.200390      -277.5667 
  23   2.0000     -10.192647      -277.3560 
  24   2.0000      -1.200665       -32.6718 
  25   2.0000      -1.069216       -29.0948 
  26   2.0000      -1.026253       -27.9258 
  27   2.0000      -0.896960       -24.4075 
  28   2.0000      -0.863188       -23.4886 
  29   2.0000      -0.837582       -22.7918 
  30   2.0000      -0.830126       -22.5889 
  31   2.0000      -0.805354       -21.9148 
  32   2.0000      -0.785329       -21.3699 
  33   2.0000      -0.763367       -20.7723 
  34   2.0000      -0.750640       -20.4260 
  35   2.0000      -0.733899       -19.9704 
  36   2.0000      -0.721124       -19.6228 
  37   2.0000      -0.682847       -18.5812 
  38   2.0000      -0.644686       -17.5428 
  39   2.0000      -0.638946       -17.3866 
  40   2.0000      -0.626633       -17.0515 
  41   2.0000      -0.615005       -16.7351 
  42   2.0000      -0.587003       -15.9732 
  43   2.0000      -0.575084       -15.6488 
  44   2.0000      -0.563678       -15.3385 
  45   2.0000      -0.542242       -14.7551 
  46   2.0000      -0.536728       -14.6051 
  47   2.0000      -0.529563       -14.4101 
  48   2.0000      -0.520989       -14.1768 
  49   2.0000      -0.517401       -14.0792 
  50   2.0000      -0.512786       -13.9536 
  51   2.0000      -0.503499       -13.7009 
  52   2.0000      -0.483480       -13.1562 
  53   2.0000      -0.477749       -13.0002 
  54   2.0000      -0.463481       -12.6120 
  55   2.0000      -0.454358       -12.3637 
  56   2.0000      -0.450281       -12.2528 
  57   2.0000      -0.434120       -11.8130 
  58   2.0000      -0.431548       -11.7430 
  59   2.0000      -0.427192       -11.6245 
  60   2.0000      -0.417943       -11.3728 
  61   2.0000      -0.414927       -11.2907 
  62   2.0000      -0.408504       -11.1160 
  63   2.0000      -0.404813       -11.0155 
  64   2.0000      -0.401556       -10.9269 
  65   2.0000      -0.388320       -10.5667 
  66   2.0000      -0.385082       -10.4786 
  67   2.0000      -0.379557       -10.3283 
  68   2.0000      -0.361027        -9.8240 
  69   2.0000      -0.358362        -9.7515 
  70   2.0000      -0.344593        -9.3769 
  71   2.0000      -0.338856        -9.2207 
  72   2.0000      -0.331725        -9.0267 
  73   2.0000      -0.303228        -8.2512 
  74   2.0000      -0.293383        -7.9834 
  75   2.0000      -0.293332        -7.9820 
  76   2.0000      -0.291097        -7.9212 
  77   2.0000      -0.275182        -7.4881 
  78   2.0000      -0.269073        -7.3218 
  79   2.0000      -0.250038        -6.8039 
  80   2.0000      -0.240612        -6.5474 
  81   2.0000      -0.198690        -5.4066 
  82   0.0000      -0.099718        -2.7135 
  83   0.0000      -0.061853        -1.6831 
  84   0.0000      -0.045299        -1.2326 
  85   0.0000      -0.024649        -0.6707 
  86   0.0000      -0.012105        -0.3294 
  87   0.0000       0.020402         0.5552 
  88   0.0000       0.022405         0.6097 
  89   0.0000       0.026597         0.7238 
  90   0.0000       0.057491         1.5644 
  91   0.0000       0.059940         1.6311 
  92   0.0000       0.068925         1.8755 
  93   0.0000       0.076845         2.0910 
  94   0.0000       0.078522         2.1367 
  95   0.0000       0.092714         2.5229 
  96   0.0000       0.098685         2.6854 
  97   0.0000       0.099036         2.6949 
  98   0.0000       0.121268         3.2999 
  99   0.0000       0.124783         3.3955 
 100   0.0000       0.150114         4.0848 
 101   0.0000       0.152590         4.1522 
 102   0.0000       0.182087         4.9548 
 103   0.0000       0.185648         5.0517 
 104   0.0000       0.195464         5.3188 
 105   0.0000       0.202550         5.5117 
 106   0.0000       0.216084         5.8799 
 107   0.0000       0.226098         6.1524 
 108   0.0000       0.227016         6.1774 
 109   0.0000       0.227105         6.1799 
 110   0.0000       0.242616         6.6019 
 111   0.0000       0.249486         6.7889 
 112   0.0000       0.256450         6.9784 
 113   0.0000       0.258737         7.0406 
 114   0.0000       0.267647         7.2830 
 115   0.0000       0.272595         7.4177 
 116   0.0000       0.289426         7.8757 
 117   0.0000       0.291349         7.9280 
 118   0.0000       0.304808         8.2943 
 119   0.0000       0.311830         8.4853 
 120   0.0000       0.315027         8.5723 
 121   0.0000       0.319412         8.6916 
 122   0.0000       0.327653         8.9159 
 123   0.0000       0.333119         9.0646 
 124   0.0000       0.334584         9.1045 
 125   0.0000       0.339852         9.2479 
 126   0.0000       0.345098         9.3906 
 127   0.0000       0.354015         9.6332 
 128   0.0000       0.363013         9.8781 
 129   0.0000       0.373267        10.1571 
 130   0.0000       0.382908        10.4195 
 131   0.0000       0.398764        10.8509 
 132   0.0000       0.401742        10.9319 
 133   0.0000       0.406766        11.0687 
 134   0.0000       0.425118        11.5681 
 135   0.0000       0.430695        11.7198 
 136   0.0000       0.435272        11.8444 
 137   0.0000       0.438162        11.9230 
 138   0.0000       0.445272        12.1165 
 139   0.0000       0.448552        12.2057 
 140   0.0000       0.458433        12.4746 
 141   0.0000       0.462880        12.5956 
 142   0.0000       0.465545        12.6681 
 143   0.0000       0.468458        12.7474 
 144   0.0000       0.470166        12.7939 
 145   0.0000       0.473698        12.8900 
 146   0.0000       0.485078        13.1997 
 147   0.0000       0.487645        13.2695 
 148   0.0000       0.492341        13.3973 
 149   0.0000       0.493423        13.4267 
 150   0.0000       0.498907        13.5760 
 151   0.0000       0.509291        13.8585 
 152   0.0000       0.524821        14.2811 
 153   0.0000       0.529850        14.4179 
 154   0.0000       0.534556        14.5460 
 155   0.0000       0.538860        14.6631 
 156   0.0000       0.543060        14.7774 
 157   0.0000       0.554528        15.0895 
 158   0.0000       0.573133        15.5957 
 159   0.0000       0.574789        15.6408 
 160   0.0000       0.583874        15.8880 
 161   0.0000       0.592173        16.1138 
 162   0.0000       0.593575        16.1520 
 163   0.0000       0.605846        16.4859 
 164   0.0000       0.615763        16.7558 
 165   0.0000       0.621620        16.9152 
 166   0.0000       0.630020        17.1437 
 167   0.0000       0.632926        17.2228 
 168   0.0000       0.637177        17.3385 
 169   0.0000       0.642912        17.4945 
 170   0.0000       0.644040        17.5252 
 171   0.0000       0.652846        17.7648 
 172   0.0000       0.658395        17.9158 
 173   0.0000       0.659662        17.9503 
 174   0.0000       0.662154        18.0181 
 175   0.0000       0.664829        18.0909 
 176   0.0000       0.672939        18.3116 
 177   0.0000       0.688215        18.7273 
 178   0.0000       0.698808        19.0155 
 179   0.0000       0.711201        19.3528 
 180   0.0000       0.715475        19.4691 
 181   0.0000       0.715831        19.4788 
 182   0.0000       0.725864        19.7518 
 183   0.0000       0.730326        19.8732 
 184   0.0000       0.730765        19.8851 
 185   0.0000       0.748581        20.3699 
 186   0.0000       0.750082        20.4108 
 187   0.0000       0.756638        20.5892 
 188   0.0000       0.762516        20.7491 
 189   0.0000       0.763115        20.7654 
 190   0.0000       0.776909        21.1408 
 191   0.0000       0.791694        21.5431 
 192   0.0000       0.792076        21.5535 
 193   0.0000       0.801602        21.8127 
 194   0.0000       0.807234        21.9660 
 195   0.0000       0.827930        22.5291 
 196   0.0000       0.839411        22.8415 
 197   0.0000       0.851954        23.1828 
 198   0.0000       0.854438        23.2505 
 199   0.0000       0.858378        23.3577 
 200   0.0000       0.866975        23.5916 
 201   0.0000       0.886763        24.1301 
 202   0.0000       0.905223        24.6324 
 203   0.0000       0.919217        25.0132 
 204   0.0000       0.939593        25.5676 
 205   0.0000       0.943144        25.6643 
 206   0.0000       0.956952        26.0400 
 207   0.0000       0.966584        26.3021 
 208   0.0000       0.991605        26.9829 
 209   0.0000       0.995655        27.0932 
 210   0.0000       1.005923        27.3725 
 211   0.0000       1.027718        27.9656 
 212   0.0000       1.029303        28.0087 
 213   0.0000       1.045433        28.4477 
 214   0.0000       1.057387        28.7730 
 215   0.0000       1.089944        29.6589 
 216   0.0000       1.100565        29.9479 
 217   0.0000       1.114226        30.3196 
 218   0.0000       1.125843        30.6357 
 219   0.0000       1.128850        30.7176 
 220   0.0000       1.141313        31.0567 
 221   0.0000       1.161077        31.5945 
 222   0.0000       1.179382        32.0926 
 223   0.0000       1.183552        32.2061 
 224   0.0000       1.197513        32.5860 
 225   0.0000       1.201425        32.6924 
 226   0.0000       1.213045        33.0086 
 227   0.0000       1.213873        33.0312 
 228   0.0000       1.219582        33.1865 
 229   0.0000       1.221929        33.2504 
 230   0.0000       1.228643        33.4331 
 231   0.0000       1.235060        33.6077 
 232   0.0000       1.241918        33.7943 
 233   0.0000       1.243685        33.8424 
 234   0.0000       1.252573        34.0842 
 235   0.0000       1.254679        34.1415 
 236   0.0000       1.258146        34.2359 
 237   0.0000       1.269755        34.5518 
 238   0.0000       1.280341        34.8398 
 239   0.0000       1.287087        35.0234 
 240   0.0000       1.292070        35.1590 
 241   0.0000       1.306530        35.5525 
 242   0.0000       1.322724        35.9931 
 243   0.0000       1.334432        36.3117 
 244   0.0000       1.334640        36.3174 
 245   0.0000       1.343625        36.5619 
 246   0.0000       1.347158        36.6580 
 247   0.0000       1.369251        37.2592 
 248   0.0000       1.375980        37.4423 
 249   0.0000       1.384424        37.6721 
 250   0.0000       1.400092        38.0984 
 251   0.0000       1.403375        38.1878 
 252   0.0000       1.426059        38.8050 
 253   0.0000       1.435677        39.0668 
 254   0.0000       1.471384        40.0384 
 255   0.0000       1.477902        40.2158 
 256   0.0000       1.499530        40.8043 
 257   0.0000       1.504948        40.9517 
 258   0.0000       1.508182        41.0397 
 259   0.0000       1.533814        41.7372 
 260   0.0000       1.622600        44.1532 
 261   0.0000       1.622982        44.1636 
 262   0.0000       1.645444        44.7748 
 263   0.0000       1.653075        44.9825 
 264   0.0000       1.653925        45.0056 
 265   0.0000       1.665306        45.3153 
 266   0.0000       1.673073        45.5266 
 267   0.0000       1.673331        45.5336 
 268   0.0000       1.678399        45.6715 
 269   0.0000       1.694914        46.1209 
 270   0.0000       1.696451        46.1628 
 271   0.0000       1.706722        46.4423 
 272   0.0000       1.716159        46.6991 
 273   0.0000       1.717442        46.7340 
 274   0.0000       1.721343        46.8401 
 275   0.0000       1.736325        47.2478 
 276   0.0000       1.739961        47.3467 
 277   0.0000       1.743894        47.4538 
 278   0.0000       1.755062        47.7577 
 279   0.0000       1.760673        47.9103 
 280   0.0000       1.762684        47.9651 
 281   0.0000       1.763936        47.9991 
 282   0.0000       1.775170        48.3048 
 283   0.0000       1.779396        48.4198 
 284   0.0000       1.787421        48.6382 
 285   0.0000       1.797334        48.9079 
 286   0.0000       1.797974        48.9254 
 287   0.0000       1.812447        49.3192 
 288   0.0000       1.826356        49.6977 
 289   0.0000       1.847581        50.2752 
 290   0.0000       1.860945        50.6389 
 291   0.0000       1.867315        50.8122 
 292   0.0000       1.875061        51.0230 
 293   0.0000       1.904616        51.8272 
 294   0.0000       1.904969        51.8368 
 295   0.0000       1.917507        52.1780 
 296   0.0000       1.937248        52.7152 
 297   0.0000       1.939807        52.7848 
 298   0.0000       1.953800        53.1656 
 299   0.0000       1.966502        53.5112 
 300   0.0000       1.979138        53.8551 
 301   0.0000       1.979248        53.8581 
 302   0.0000       1.989398        54.1343 
 303   0.0000       2.012191        54.7545 
 304   0.0000       2.021840        55.0171 
 305   0.0000       2.039940        55.5096 
 306   0.0000       2.043503        55.6065 
 307   0.0000       2.050458        55.7958 
 308   0.0000       2.052939        55.8633 
 309   0.0000       2.060334        56.0645 
 310   0.0000       2.063068        56.1389 
 311   0.0000       2.087371        56.8003 
 312   0.0000       2.093575        56.9691 
 313   0.0000       2.102304        57.2066 
 314   0.0000       2.125710        57.8435 
 315   0.0000       2.133253        58.0488 
 316   0.0000       2.141617        58.2764 
 317   0.0000       2.151210        58.5374 
 318   0.0000       2.155456        58.6529 
 319   0.0000       2.177500        59.2528 
 320   0.0000       2.187570        59.5268 
 321   0.0000       2.197491        59.7968 
 322   0.0000       2.207003        60.0556 
 323   0.0000       2.209480        60.1230 
 324   0.0000       2.215236        60.2796 
 325   0.0000       2.235355        60.8271 
 326   0.0000       2.241271        60.9881 
 327   0.0000       2.246037        61.1178 
 328   0.0000       2.254890        61.3587 
 329   0.0000       2.258333        61.4524 
 330   0.0000       2.275128        61.9094 
 331   0.0000       2.285738        62.1981 
 332   0.0000       2.297990        62.5315 
 333   0.0000       2.306807        62.7714 
 334   0.0000       2.329853        63.3985 
 335   0.0000       2.345681        63.8292 
 336   0.0000       2.365177        64.3597 
 337   0.0000       2.377197        64.6868 
 338   0.0000       2.377528        64.6958 
 339   0.0000       2.390768        65.0561 
 340   0.0000       2.418606        65.8136 
 341   0.0000       2.426492        66.0282 
 342   0.0000       2.429142        66.1003 
 343   0.0000       2.467142        67.1343 
 344   0.0000       2.471818        67.2616 
 345   0.0000       2.503430        68.1218 
 346   0.0000       2.505491        68.1779 
 347   0.0000       2.520307        68.5810 
 348   0.0000       2.532263        68.9064 
 349   0.0000       2.553981        69.4974 
 350   0.0000       2.566795        69.8461 
 351   0.0000       2.588842        70.4460 
 352   0.0000       2.594062        70.5880 
 353   0.0000       2.594968        70.6127 
 354   0.0000       2.612481        71.0892 
 355   0.0000       2.624413        71.4139 
 356   0.0000       2.639980        71.8375 
 357   0.0000       2.648182        72.0607 
 358   0.0000       2.663983        72.4907 
 359   0.0000       2.665403        72.5293 
 360   0.0000       2.675922        72.8155 
 361   0.0000       2.678608        72.8886 
 362   0.0000       2.688816        73.1664 
 363   0.0000       2.705475        73.6197 
 364   0.0000       2.713702        73.8436 
 365   0.0000       2.723089        74.0990 
 366   0.0000       2.753200        74.9184 
 367   0.0000       2.764577        75.2280 
 368   0.0000       2.766001        75.2667 
 369   0.0000       2.772964        75.4562 
 370   0.0000       2.806167        76.3597 
 371   0.0000       2.816432        76.6390 
 372   0.0000       2.850186        77.5575 
 373   0.0000       2.867256        78.0220 
 374   0.0000       2.892644        78.7128 
 375   0.0000       2.897412        78.8426 
 376   0.0000       2.908950        79.1566 
 377   0.0000       2.930019        79.7299 
 378   0.0000       2.956875        80.4607 
 379   0.0000       2.964952        80.6804 
 380   0.0000       2.965081        80.6840 
 381   0.0000       2.995403        81.5091 
 382   0.0000       3.005763        81.7910 
 383   0.0000       3.048428        82.9519 
 384   0.0000       3.059213        83.2454 
 385   0.0000       3.105674        84.5097 
 386   0.0000       3.154366        85.8347 
 387   0.0000       3.192768        86.8796 
 388   0.0000       3.259642        88.6994 
 389   0.0000       3.269418        88.9654 
 390   0.0000       3.282603        89.3242 
 391   0.0000       3.298623        89.7601 
 392   0.0000       3.370992        91.7294 
 393   0.0000       3.411243        92.8246 
 394   0.0000       3.440521        93.6213 
 395   0.0000       3.488723        94.9330 
 396   0.0000       3.578433        97.3741 
 397   0.0000       3.627499        98.7093 
 398   0.0000       3.774377       102.7060 
 399   0.0000       3.779110       102.8348 
 400   0.0000       3.782685       102.9321 

                    ********************************
                    * MULLIKEN POPULATION ANALYSIS *
                    ********************************

-----------------------
MULLIKEN ATOMIC CHARGES
-----------------------
   0 C :    0.074879
   1 C :   -0.022670
   2 C :   -0.030438
   3 C :    0.073297
   4 C :   -0.012372
   5 C :   -0.027169
   6 C :    0.055630
   7 C :    0.103874
   8 C :   -0.044687
   9 C :   -0.024259
  10 C :    0.061107
  11 C :   -0.003842
  12 C :   -0.042036
  13 C :    0.079806
  14 C :    0.054250
  15 C :    0.067474
  16 C :    0.040660
  17 C :   -0.021485
  18 C :    0.059848
  19 C :    0.076125
  20 O :   -0.182051
  21 N :    0.232657
  22 O :   -0.262665
  23 O :   -0.259580
  24 H :   -0.022489
  25 H :   -0.028261
  26 H :   -0.029666
  27 H :   -0.029157
  28 H :   -0.039311
  29 H :   -0.030186
  30 H :   -0.027389
  31 H :   -0.026021
  32 H :    0.014375
  33 H :   -0.015745
  34 H :    0.003681
  35 H :   -0.002513
  36 H :    0.186329
Sum of atomic charges:    0.0000000

--------------------------------
MULLIKEN REDUCED ORBITAL CHARGES
--------------------------------
  0 C s       :     3.100252  s :     3.100252
      pz      :     1.022792  p :     2.784286
      px      :     0.814246
      py      :     0.947248
      dz2     :     0.003157  d :     0.040583
      dxz     :     0.005470
      dyz     :     0.005853
      dx2y2   :     0.013073
      dxy     :     0.013030
  1 C s       :     3.229665  s :     3.229665
      pz      :     0.967399  p :     2.757910
      px      :     0.973792
      py      :     0.816718
      dz2     :     0.002613  d :     0.035095
      dxz     :     0.007184
      dyz     :     0.002286
      dx2y2   :     0.012758
      dxy     :     0.010255
  2 C s       :     3.245959  s :     3.245959
      pz      :     0.998197  p :     2.749977
[...]
     87      -0.003804  -0.000315   0.000306
     88      -0.002427  -0.000177   0.000126
     89       0.000039   0.000002   0.000002
     90      -0.113628  -0.002037   0.000225
     91      -0.065511  -0.001224   0.000116
     92       0.000640   0.000014  -0.000000
     93      -0.684291  -0.019432  -0.000017
     94       0.394661   0.011425  -0.000034
     95      -0.056743  -0.001627   0.000002
     96      -0.503288  -0.031013  -0.000008
     97      -0.293567  -0.021326   0.000029
     98       0.006167   0.000661  -0.000002
     99       0.030165   0.000399  -0.001446
    100       0.017899   0.000249  -0.001491
    101      -0.000413  -0.000007   0.000047
    102       0.027783  -0.729772   0.000093
    103       0.022569  -0.670435   0.000092
    104      -0.000890   0.030279  -0.000004
    105       0.001398  -0.000080  -0.003005
    106       0.001151  -0.000064  -0.010479
    107      -0.000049   0.000002   0.000778
    108       0.000042  -0.000035  -0.108128
    109      -0.000147  -0.000142  -0.988753
    110       0.000014   0.000011   0.081191


-----------
IR SPECTRUM
-----------

 Mode   freq       eps      Int      T**2         TX        TY        TZ
       cm**-1   L/(mol*cm) km/mol    a.u.
----------------------------------------------------------------------------
  7:     21.55   0.000009    0.05  0.000132  ( 0.000966 -0.001390 -0.011356)
  8:     29.91   0.000161    0.81  0.001680  ( 0.000845 -0.002953 -0.040871)
  9:     66.10   0.000023    0.12  0.000108  ( 0.000448 -0.001397 -0.010278)
 10:     67.34   0.000236    1.19  0.001094  (-0.007486 -0.032131  0.002407)
 11:    100.90   0.000386    1.95  0.001192  ( 0.001120 -0.003023 -0.034380)
 12:    120.65   0.000492    2.48  0.001271  ( 0.000920  0.003006  0.035519)
 13:    122.32   0.000298    1.51  0.000760  ( 0.025011  0.011362 -0.002305)
 14:    162.08   0.000038    0.19  0.000073  (-0.000517  0.001419  0.008423)
 15:    205.99   0.000118    0.60  0.000179  ( 0.000080  0.001399  0.013293)
 16:    216.07   0.000004    0.02  0.000006  ( 0.002250 -0.000864  0.000315)
 17:    221.43   0.001364    6.89  0.001922  ( 0.001763 -0.003511 -0.043669)
 18:    252.84   0.000129    0.65  0.000159  ( 0.011755  0.004505 -0.000354)
 19:    262.56   0.000018    0.09  0.000021  ( 0.000314 -0.000647 -0.004537)
 20:    300.35   0.003359   16.97  0.003490  ( 0.002148 -0.005581 -0.058772)
 21:    309.11   0.000665    3.36  0.000671  (-0.016966  0.019489 -0.001819)
 22:    340.27   0.015299   77.32  0.014031  (-0.003835  0.010241  0.117948)
 23:    353.84   0.000666    3.37  0.000587  ( 0.015105 -0.018951  0.000287)
 24:    392.18   0.002187   11.05  0.001740  ( 0.001612 -0.003765 -0.041512)
 25:    422.77   0.001681    8.50  0.001241  ( 0.019734 -0.029032  0.002988)
 26:    451.65   0.000054    0.27  0.000038  ( 0.001620 -0.001855 -0.005607)
 27:    453.99   0.001837    9.29  0.001263  (-0.026131  0.023879 -0.003157)
 28:    503.71   0.000676    3.42  0.000419  (-0.008495  0.018546 -0.001695)
 29:    523.29   0.000138    0.70  0.000082  (-0.005354 -0.007315  0.000332)
 30:    525.78   0.000008    0.04  0.000005  ( 0.000090 -0.000058  0.002148)
 31:    532.18   0.001653    8.35  0.000969  ( 0.008646 -0.029791  0.002656)
 32:    560.98   0.000467    2.36  0.000260  (-0.000675  0.001215  0.016060)
 33:    570.11   0.000391    1.98  0.000214  ( 0.000822 -0.001491 -0.014538)
 34:    579.49   0.001071    5.41  0.000577  ( 0.008047 -0.022513  0.002302)
 35:    604.99   0.003100   15.66  0.001599  (-0.021020  0.033856 -0.003276)
 36:    634.18   0.001646    8.32  0.000810  (-0.014056  0.024627 -0.002445)
 37:    667.52   0.000067    0.34  0.000031  ( 0.000200 -0.000435 -0.005564)
 38:    701.85   0.000087    0.44  0.000039  (-0.005741  0.002382 -0.000367)
 39:    719.11   0.001113    5.62  0.000483  (-0.000691  0.001426  0.021917)
 40:    737.03   0.000423    2.14  0.000179  (-0.011150 -0.007411  0.000108)
 41:    741.39   0.000087    0.44  0.000036  ( 0.000306 -0.000424 -0.006014)
 42:    761.96   0.002837   14.34  0.001162  (-0.001337  0.002749  0.033950)
 43:    774.96   0.001796    9.08  0.000723  ( 0.020687 -0.017051  0.002177)
 44:    802.23   0.009981   50.44  0.003882  (-0.046922  0.040701 -0.004921)
 45:    818.35   0.000014    0.07  0.000005  ( 0.000423 -0.000816 -0.002156)
 46:    819.99   0.005291   26.74  0.002014  ( 0.009668 -0.043665  0.003702)
 47:    839.96   0.004190   21.18  0.001557  ( 0.001445 -0.002994 -0.039316)
 48:    854.28   0.000790    3.99  0.000288  (-0.000614  0.001534  0.016902)
 49:    864.07   0.001679    8.49  0.000606  ( 0.010400 -0.022223  0.002106)
 50:    876.52   0.004850   24.51  0.001727  ( 0.001515 -0.002792 -0.041431)
 51:    884.36   0.004956   25.04  0.001749  (-0.001507  0.003308  0.041659)
 52:    894.66   0.001635    8.26  0.000570  (-0.001113  0.002078  0.023765)
 53:    945.26   0.000074    0.38  0.000025  (-0.000121  0.000376  0.004937)
 54:    948.22   0.006769   34.21  0.002228  (-0.001303  0.003187  0.047073)
 55:    986.76   0.014350   72.52  0.004538  (-0.034004  0.057881 -0.005621)
 56:    991.88   0.000166    0.84  0.000052  (-0.000512  0.001031  0.007130)
 57:    995.53   0.000755    3.81  0.000237  (-0.000459  0.001025  0.015338)
 58:    999.86   0.001320    6.67  0.000412  ( 0.012401 -0.015969  0.001780)
 59:   1009.91   0.025437  128.55  0.007860  ( 0.048892 -0.073577  0.007494)
 60:   1012.44   0.001557    7.87  0.000480  (-0.000733  0.001588  0.021835)
 61:   1016.09   0.000692    3.50  0.000213  (-0.000524  0.001209  0.014521)
 62:   1020.05   0.000197    1.00  0.000060  (-0.000173  0.000463  0.007754)
 63:   1115.57   0.002049   10.36  0.000573  ( 0.007180 -0.022750  0.002025)
 64:   1131.86   0.000176    0.89  0.000048  (-0.006778  0.001534 -0.000354)
 65:   1168.39   0.002676   13.52  0.000715  (-0.003365  0.026424 -0.002259)
 66:   1184.01   0.000295    1.49  0.000078  (-0.001499  0.008653 -0.000778)
 67:   1195.80   0.000025    0.12  0.000006  ( 0.002285  0.001102  0.000029)
 68:   1204.29   0.002491   12.59  0.000645  ( 0.024879 -0.004977  0.001299)
 69:   1208.03   0.022417  113.29  0.005791  ( 0.064396 -0.040158  0.005597)
 70:   1231.23   0.046763  236.32  0.011852  ( 0.059332 -0.090807  0.009285)
 71:   1237.43   0.096218  486.25  0.024265  ( 0.096584 -0.121517  0.013046)
 72:   1264.10   0.032629  164.89  0.008055  (-0.044627  0.077481 -0.007763)
 73:   1268.55   0.000391    1.98  0.000096  ( 0.007373  0.006469 -0.000251)
 74:   1278.86   0.025780  130.28  0.006291  ( 0.041590 -0.067186  0.006864)
 75:   1285.19   0.023748  120.01  0.005766  ( 0.047246 -0.059096  0.006473)
 76:   1320.71   0.001495    7.56  0.000353  (-0.011227  0.014984 -0.001659)
 77:   1333.61   0.007279   36.78  0.001703  (-0.022811  0.034219 -0.003452)
 78:   1351.38   0.001003    5.07  0.000232  (-0.010206 -0.011279  0.000578)
 79:   1371.24   0.000265    1.34  0.000060  ( 0.002670  0.007271 -0.000511)
 80:   1381.93   0.015224   76.94  0.003438  ( 0.047934 -0.033481  0.004389)
 81:   1399.65   0.219022  1106.85  0.048833  ( 0.145221 -0.165535  0.018487)
 82:   1407.14   0.000083    0.42  0.000018  (-0.004209 -0.000832 -0.000156)
 83:   1414.38   0.007206   36.41  0.001590  ( 0.028615 -0.027568  0.003323)
 84:   1426.75   0.002308   11.66  0.000505  (-0.001284  0.022357 -0.001797)
 85:   1444.00   0.000043    0.22  0.000009  (-0.002189 -0.002107  0.000080)
 86:   1469.48   0.003183   16.08  0.000676  ( 0.021369 -0.014684  0.001910)
 87:   1506.15   0.000615    3.11  0.000128  (-0.004262 -0.010437  0.000640)
 88:   1537.00   0.000649    3.28  0.000132  (-0.011413 -0.001170 -0.000340)
 89:   1548.31   0.004482   22.65  0.000903  (-0.008049  0.028847 -0.002535)
 90:   1574.38   0.004275   21.60  0.000847  (-0.020564  0.020462 -0.002397)
 91:   1621.58   0.001828    9.24  0.000352  (-0.003352  0.018390 -0.001560)
 92:   1629.26   0.051477  260.15  0.009860  ( 0.089169 -0.043216  0.006408)
 93:   1645.49   0.028121  142.11  0.005333  (-0.011585  0.071829 -0.006289)
 94:   1659.91   0.003900   19.71  0.000733  (-0.020154 -0.018070  0.000699)
 95:   1669.04   0.036457  184.24  0.006816  (-0.016320  0.080627 -0.007023)
 96:   1694.79   0.043473  219.70  0.008005  ( 0.013146 -0.088160  0.007733)
 97:   1733.31   0.083118  420.05  0.014965  (-0.061007  0.105504 -0.010566)
 98:   3155.20   0.002099   10.61  0.000208  (-0.014291 -0.001802 -0.000314)
 99:   3172.33   0.000185    0.93  0.000018  (-0.002800  0.003193 -0.000363)
100:   3175.70   0.002354   11.89  0.000231  (-0.015192  0.000309 -0.000619)
101:   3175.92   0.000170    0.86  0.000017  ( 0.004047  0.000557  0.000119)
102:   3179.14   0.002192   11.08  0.000215  ( 0.014626 -0.000892  0.000652)
103:   3194.64   0.004763   24.07  0.000465  (-0.006265 -0.020596  0.001341)
104:   3199.49   0.001813    9.16  0.000177  ( 0.005765  0.011962 -0.000687)
105:   3200.24   0.001613    8.15  0.000157  ( 0.004406 -0.011694  0.001057)
106:   3205.90   0.000921    4.65  0.000090  (-0.008987 -0.002971 -0.000083)
107:   3223.68   0.002945   14.88  0.000285  (-0.016066  0.005093 -0.001009)
108:   3224.10   0.000259    1.31  0.000025  ( 0.004401 -0.002361  0.000375)
109:   3254.17   0.003161   15.98  0.000303  ( 0.008815 -0.014935  0.001545)
110:   3849.25   0.066220  334.65  0.005369  ( 0.022944 -0.069278  0.006534)

* The epsilon (eps) is given for a Dirac delta lineshape.
** The dipole moment derivative (T) already includes vibrational overlap.

The first frequency considered to be a vibration is 7
The total number of vibrations considered is 104


--------------------------
THERMOCHEMISTRY AT 298.15K
--------------------------

Temperature         ... 298.15 K
Pressure            ... 1.00 atm
Total Mass          ... 315.33 AMU

Throughout the following assumptions are being made:
  (1) The electronic state is orbitally nondegenerate
  (2) There are no thermally accessible electronically excited states
  (3) Hindered rotations indicated by low frequency modes are not
      treated as such but are treated as vibrations and this may
      cause some error
  (4) All equations used are the standard statistical mechanics
      equations for an ideal gas
  (5) All vibrations are strictly harmonic

freq.      21.55  E(vib)   ...       0.56 
freq.      29.91  E(vib)   ...       0.55 
freq.      66.10  E(vib)   ...       0.50 
freq.      67.34  E(vib)   ...       0.50 
freq.     100.90  E(vib)   ...       0.46 
freq.     120.65  E(vib)   ...       0.44 
freq.     122.32  E(vib)   ...       0.43 
freq.     162.08  E(vib)   ...       0.39 
freq.     205.99  E(vib)   ...       0.35 
freq.     216.07  E(vib)   ...       0.34 
freq.     221.43  E(vib)   ...       0.33 
freq.     252.84  E(vib)   ...       0.30 
freq.     262.56  E(vib)   ...       0.29 
freq.     300.35  E(vib)   ...       0.26 
freq.     309.11  E(vib)   ...       0.26 
freq.     340.27  E(vib)   ...       0.23 
freq.     353.84  E(vib)   ...       0.22 
freq.     392.18  E(vib)   ...       0.20 
freq.     422.77  E(vib)   ...       0.18 
freq.     451.65  E(vib)   ...       0.16 
freq.     453.99  E(vib)   ...       0.16 
freq.     503.71  E(vib)   ...       0.14 
freq.     523.29  E(vib)   ...       0.13 
freq.     525.78  E(vib)   ...       0.13 
freq.     532.18  E(vib)   ...       0.13 
freq.     560.98  E(vib)   ...       0.11 
freq.     570.11  E(vib)   ...       0.11 
freq.     579.49  E(vib)   ...       0.11 
freq.     604.99  E(vib)   ...       0.10 
freq.     634.18  E(vib)   ...       0.09 
freq.     667.52  E(vib)   ...       0.08 
freq.     701.85  E(vib)   ...       0.07 
freq.     719.11  E(vib)   ...       0.07 
freq.     737.03  E(vib)   ...       0.06 
freq.     741.39  E(vib)   ...       0.06 
freq.     761.96  E(vib)   ...       0.06 
freq.     774.96  E(vib)   ...       0.05 
freq.     802.23  E(vib)   ...       0.05 
freq.     818.35  E(vib)   ...       0.05 
freq.     819.99  E(vib)   ...       0.05 
freq.     839.96  E(vib)   ...       0.04 
freq.     854.28  E(vib)   ...       0.04 
freq.     864.07  E(vib)   ...       0.04 
freq.     876.52  E(vib)   ...       0.04 
freq.     884.36  E(vib)   ...       0.04 
freq.     894.66  E(vib)   ...       0.03 
freq.     945.26  E(vib)   ...       0.03 
freq.     948.22  E(vib)   ...       0.03 
freq.     986.76  E(vib)   ...       0.02 
freq.     991.88  E(vib)   ...       0.02 
freq.     995.53  E(vib)   ...       0.02 
freq.     999.86  E(vib)   ...       0.02 
freq.    1009.91  E(vib)   ...       0.02 
freq.    1012.44  E(vib)   ...       0.02 
freq.    1016.09  E(vib)   ...       0.02 
freq.    1020.05  E(vib)   ...       0.02 
freq.    1115.57  E(vib)   ...       0.01 
freq.    1131.86  E(vib)   ...       0.01 
freq.    1168.39  E(vib)   ...       0.01 
freq.    1184.01  E(vib)   ...       0.01 
freq.    1195.80  E(vib)   ...       0.01 
freq.    1204.29  E(vib)   ...       0.01 
freq.    1208.03  E(vib)   ...       0.01 
freq.    1231.23  E(vib)   ...       0.01 
freq.    1237.43  E(vib)   ...       0.01 
freq.    1264.10  E(vib)   ...       0.01 
freq.    1268.55  E(vib)   ...       0.01 
freq.    1278.86  E(vib)   ...       0.01 
freq.    1285.19  E(vib)   ...       0.01 
freq.    1320.71  E(vib)   ...       0.01 
freq.    1333.61  E(vib)   ...       0.01 
freq.    1351.38  E(vib)   ...       0.01 
freq.    1371.24  E(vib)   ...       0.01 
freq.    1381.93  E(vib)   ...       0.01 
freq.    1399.65  E(vib)   ...       0.00 
freq.    1407.14  E(vib)   ...       0.00 
freq.    1414.38  E(vib)   ...       0.00 
freq.    1426.75  E(vib)   ...       0.00 
freq.    1444.00  E(vib)   ...       0.00 
freq.    1469.48  E(vib)   ...       0.00 
freq.    1506.15  E(vib)   ...       0.00 
freq.    1537.00  E(vib)   ...       0.00 
freq.    1548.31  E(vib)   ...       0.00 
freq.    1574.38  E(vib)   ...       0.00 
freq.    1621.58  E(vib)   ...       0.00 
freq.    1629.26  E(vib)   ...       0.00 
freq.    1645.49  E(vib)   ...       0.00 
freq.    1659.91  E(vib)   ...       0.00 
freq.    1669.04  E(vib)   ...       0.00 
freq.    1694.79  E(vib)   ...       0.00 
freq.    1733.31  E(vib)   ...       0.00 
freq.    3155.20  E(vib)   ...       0.00 
freq.    3172.33  E(vib)   ...       0.00 
freq.    3175.70  E(vib)   ...       0.00 
freq.    3175.92  E(vib)   ...       0.00 
freq.    3179.14  E(vib)   ...       0.00 
freq.    3194.64  E(vib)   ...       0.00 
freq.    3199.49  E(vib)   ...       0.00 
freq.    3200.24  E(vib)   ...       0.00 
freq.    3205.90  E(vib)   ...       0.00 
freq.    3223.68  E(vib)   ...       0.00 
freq.    3224.10  E(vib)   ...       0.00 
freq.    3254.17  E(vib)   ...       0.00 
freq.    3849.25  E(vib)   ...       0.00 

------------
INNER ENERGY
------------

The inner energy is: U= E(el) + E(ZPE) + E(vib) + E(rot) + E(trans)
    E(el)   - is the total energy from the electronic structure calculation
              = E(kin-el) + E(nuc-el) + E(el-el) + E(nuc-nuc)
    E(ZPE)  - the the zero temperature vibrational energy from the frequency calculation
    E(vib)  - the the finite temperature correction to E(ZPE) due to population
              of excited vibrational states
    E(rot)  - is the rotational thermal energy
    E(trans)- is the translational thermal energy

Summary of contributions to the inner energy U:
Electronic energy                ...  -1048.92565675 Eh
Zero point energy                ...      0.28184435 Eh     176.86 kcal/mol
Thermal vibrational correction   ...      0.01505405 Eh       9.45 kcal/mol
Thermal rotational correction    ...      0.00141627 Eh       0.89 kcal/mol
Thermal translational correction ...      0.00141627 Eh       0.89 kcal/mol
-----------------------------------------------------------------------
Total thermal energy                  -1048.62592581 Eh


Summary of corrections to the electronic energy:
(perhaps to be used in another calculation)
Total thermal correction                  0.01788659 Eh      11.22 kcal/mol
Non-thermal (ZPE) correction              0.28184435 Eh     176.86 kcal/mol
-----------------------------------------------------------------------
Total correction                          0.29973094 Eh     188.08 kcal/mol


--------
ENTHALPY
--------

The enthalpy is H = U + kB*T
                kB is Boltzmann's constant
Total free energy                 ...  -1048.62592581 Eh 
Thermal Enthalpy correction       ...      0.00094421 Eh       0.59 kcal/mol
-----------------------------------------------------------------------
Total Enthalpy                    ...  -1048.62498160 Eh


Note: Only C1 symmetry has been detected, increase convergence thresholds 
      if your molecule has a higher symmetry. Symmetry factor of 1.0 is   
      used for the rotational entropy correction. 
 

Note: Rotational entropy computed according to Herzberg 
Infrared and Raman Spectra, Chapter V,1, Van Nostrand Reinhold, 1945 
Point Group:  C1, Symmetry Number:   1  
Rotational constants in cm-1:     0.024969     0.003302     0.002916 

Vibrational entropy computed according to the QRRHO of S. Grimme
Chem.Eur.J. 2012 18 9955


-------
ENTROPY
-------

The entropy contributions are T*S = T*(S(el)+S(vib)+S(rot)+S(trans))
     S(el)   - electronic entropy
     S(vib)  - vibrational entropy
     S(rot)  - rotational entropy
     S(trans)- translational entropy
The entropies will be listed as multiplied by the temperature to get
units of energy

Electronic entropy                ...      0.00000000 Eh      0.00 kcal/mol
Vibrational entropy               ...      0.02607785 Eh     16.36 kcal/mol
Rotational entropy                ...      0.01670592 Eh     10.48 kcal/mol
Translational entropy             ...      0.02049775 Eh     12.86 kcal/mol
-----------------------------------------------------------------------
Final entropy term                ...      0.06328152 Eh     39.71 kcal/mol

In case the symmetry of your molecule has not been determined correctly
or in case you have a reason to use a different symmetry number we print 
out the resulting rotational entropy values for sn=1,12 :
 --------------------------------------------------------
|  sn= 1 | S(rot)=       0.01670592 Eh     10.48 kcal/mol|
|  sn= 2 | S(rot)=       0.01605146 Eh     10.07 kcal/mol|
|  sn= 3 | S(rot)=       0.01566863 Eh      9.83 kcal/mol|
|  sn= 4 | S(rot)=       0.01539701 Eh      9.66 kcal/mol|
|  sn= 5 | S(rot)=       0.01518632 Eh      9.53 kcal/mol|
|  sn= 6 | S(rot)=       0.01501418 Eh      9.42 kcal/mol|
|  sn= 7 | S(rot)=       0.01486863 Eh      9.33 kcal/mol|
|  sn= 8 | S(rot)=       0.01474255 Eh      9.25 kcal/mol|
|  sn= 9 | S(rot)=       0.01463134 Eh      9.18 kcal/mol|
|  sn=10 | S(rot)=       0.01453186 Eh      9.12 kcal/mol|
|  sn=11 | S(rot)=       0.01444187 Eh      9.06 kcal/mol|
|  sn=12 | S(rot)=       0.01435972 Eh      9.01 kcal/mol|
 --------------------------------------------------------


-------------------
GIBBS FREE ENERGY
-------------------

The Gibbs free energy is G = H - T*S

Total enthalpy                    ...  -1048.62498160 Eh 
Total entropy correction          ...     -0.06328152 Eh    -39.71 kcal/mol
-----------------------------------------------------------------------
Final Gibbs free energy         ...  -1048.68826311 Eh

For completeness - the Gibbs free energy minus the electronic energy
G-E(el)                           ...      0.23739364 Eh    148.97 kcal/mol


Timings for individual modules:

Sum of individual times         ...     1308.469 sec (=  21.808 min)
GTO integral calculation        ...       26.194 sec (=   0.437 min)   2.0 %
SCF iterations                  ...      264.442 sec (=   4.407 min)  20.2 %
SCF Gradient evaluation         ...       25.418 sec (=   0.424 min)   1.9 %
Geometry relaxation             ...        4.379 sec (=   0.073 min)   0.3 %
Analytical frequency calculation...      988.035 sec (=  16.467 min)  75.5 %
                             ****ORCA TERMINATED NORMALLY****
TOTAL RUN TIME: 0 days 0 hours 21 minutes 51 seconds 522 msec
