Start Job  on nano04

                                 *****************
                                 * O   R   C   A *
                                 *****************

                                            #,                                       
                                            ###                                      
                                            ####                                     
                                            #####                                    
                                            ######                                   
                                           ########,                                 
                                     ,,################,,,,,                         
                               ,,#################################,,                 
                          ,,##########################################,,             
                       ,#########################################, ''#####,          
                    ,#############################################,,   '####,        
                  ,##################################################,,,,####,       
                ,###########''''           ''''###############################       
              ,#####''   ,,,,##########,,,,          '''####'''          '####       
            ,##' ,,,,###########################,,,                        '##       
           ' ,,###''''                  '''############,,,                           
         ,,##''                                '''############,,,,        ,,,,,,###''
      ,#''                                            '''#######################'''  
     '                                                          ''''####''''         
             ,#######,   #######,   ,#######,      ##                                
            ,#'     '#,  ##    ##  ,#'     '#,    #''#        ######   ,####,        
            ##       ##  ##   ,#'  ##            #'  '#       #        #'  '#        
            ##       ##  #######   ##           ,######,      #####,   #    #        
            '#,     ,#'  ##    ##  '#,     ,#' ,#      #,         ##   #,  ,#        
             '#######'   ##     ##  '#######'  #'      '#     #####' # '####'        



                  #######################################################
                  #                        -***-                        #
                  #          Department of theory and spectroscopy      #
                  #    Directorship and core code : Frank Neese         #
                  #        Max Planck Institute fuer Kohlenforschung    #
                  #                Kaiser Wilhelm Platz 1               #
                  #                 D-45470 Muelheim/Ruhr               #
                  #                      Germany                        #
                  #                                                     #
                  #                  All rights reserved                #
                  #                        -***-                        #
                  #######################################################


                         Program Version 5.0.4 -  RELEASE  -


 With contributions from (in alphabetic order):
   Daniel Aravena         : Magnetic Suceptibility
   Michael Atanasov       : Ab Initio Ligand Field Theory (pilot matlab implementation)
   Alexander A. Auer      : GIAO ZORA, VPT2 properties, NMR spectrum
   Ute Becker             : Parallelization
   Giovanni Bistoni       : ED, misc. LED, open-shell LED, HFLD
   Martin Brehm           : Molecular dynamics
   Dmytro Bykov           : SCF Hessian
   Vijay G. Chilkuri      : MRCI spin determinant printing, contributions to CSF-ICE
   Dipayan Datta          : RHF DLPNO-CCSD density
   Achintya Kumar Dutta   : EOM-CC, STEOM-CC
   Dmitry Ganyushin       : Spin-Orbit,Spin-Spin,Magnetic field MRCI
   Miquel Garcia          : C-PCM and meta-GGA Hessian, CC/C-PCM, Gaussian charge scheme
   Yang Guo               : DLPNO-NEVPT2, F12-NEVPT2, CIM, IAO-localization
   Andreas Hansen         : Spin unrestricted coupled pair/coupled cluster methods
   Benjamin Helmich-Paris : MC-RPA, TRAH-SCF, COSX integrals
   Lee Huntington         : MR-EOM, pCC
   Robert Izsak           : Overlap fitted RIJCOSX, COSX-SCS-MP3, EOM
   Marcus Kettner         : VPT2
   Christian Kollmar      : KDIIS, OOCD, Brueckner-CCSD(T), CCSD density, CASPT2, CASPT2-K
   Simone Kossmann        : Meta GGA functionals, TD-DFT gradient, OOMP2, MP2 Hessian
   Martin Krupicka        : Initial AUTO-CI
   Lucas Lang             : DCDCAS
   Marvin Lechner         : AUTO-CI (C++ implementation), FIC-MRCC
   Dagmar Lenk            : GEPOL surface, SMD
   Dimitrios Liakos       : Extrapolation schemes; Compound Job, initial MDCI parallelization
   Dimitrios Manganas     : Further ROCIS development; embedding schemes
   Dimitrios Pantazis     : SARC Basis sets
   Anastasios Papadopoulos: AUTO-CI, single reference methods and gradients
   Taras Petrenko         : DFT Hessian,TD-DFT gradient, ASA, ECA, R-Raman, ABS, FL, XAS/XES, NRVS
   Peter Pinski           : DLPNO-MP2, DLPNO-MP2 Gradient
   Christoph Reimann      : Effective Core Potentials
   Marius Retegan         : Local ZFS, SOC
   Christoph Riplinger    : Optimizer, TS searches, QM/MM, DLPNO-CCSD(T), (RO)-DLPNO pert. Triples
   Tobias Risthaus        : Range-separated hybrids, TD-DFT gradient, RPA, STAB
   Michael Roemelt        : Original ROCIS implementation
   Masaaki Saitow         : Open-shell DLPNO-CCSD energy and density
   Barbara Sandhoefer     : DKH picture change effects
   Avijit Sen             : IP-ROCIS
   Kantharuban Sivalingam : CASSCF convergence, NEVPT2, FIC-MRCI
   Bernardo de Souza      : ESD, SOC TD-DFT
   Georgi Stoychev        : AutoAux, RI-MP2 NMR, DLPNO-MP2 response
   Willem Van den Heuvel  : Paramagnetic NMR
   Boris Wezisla          : Elementary symmetry handling
   Frank Wennmohs         : Technical directorship


 We gratefully acknowledge several colleagues who have allowed us to
 interface, adapt or use parts of their codes:
   Stefan Grimme, W. Hujo, H. Kruse, P. Pracht,  : VdW corrections, initial TS optimization,
                  C. Bannwarth, S. Ehlert          DFT functionals, gCP, sTDA/sTD-DF
   Ed Valeev, F. Pavosevic, A. Kumar             : LibInt (2-el integral package), F12 methods
   Garnet Chan, S. Sharma, J. Yang, R. Olivares  : DMRG
   Ulf Ekstrom                                   : XCFun DFT Library
   Mihaly Kallay                                 : mrcc  (arbitrary order and MRCC methods)
   Jiri Pittner, Ondrej Demel                    : Mk-CCSD
   Frank Weinhold                                : gennbo (NPA and NBO analysis)
   Christopher J. Cramer and Donald G. Truhlar   : smd solvation model
   Lars Goerigk                                  : TD-DFT with DH, B97 family of functionals
   V. Asgeirsson, H. Jonsson                     : NEB implementation
   FAccTs GmbH                                   : IRC, NEB, NEB-TS, DLPNO-Multilevel, CI-OPT
                                                   MM, QMMM, 2- and 3-layer-ONIOM, Crystal-QMMM,
                                                   LR-CPCM, SF, NACMEs, symmetry and pop. for TD-DFT,
                                                   nearIR, NL-DFT gradient (VV10), updates on ESD,
                                                   ML-optimized integration grids
   S Lehtola, MJT Oliveira, MAL Marques          : LibXC Library
   Liviu Ungur et al                             : ANISO software


 Your calculation uses the libint2 library for the computation of 2-el integrals
 For citations please refer to: http://libint.valeyev.net

 Your ORCA version has been built with support for libXC version: 5.1.0
 For citations please refer to: https://tddft.org/programs/libxc/

 This ORCA versions uses:
   CBLAS   interface :  Fast vector & matrix operations
   LAPACKE interface :  Fast linear algebra routines
   SCALAPACK package :  Parallel linear algebra routines
   Shared memory     :  Shared parallel matrices
   BLAS/LAPACK       :  OpenBLAS 0.3.15  USE64BITINT DYNAMIC_ARCH NO_AFFINITY Zen SINGLE_THREADED
        Core in use  :  Zen
   Copyright (c) 2011-2014, The OpenBLAS Project


================================================================================

----- Orbital basis set information -----
Your calculation utilizes the basis: def2-SVP
   F. Weigend and R. Ahlrichs, Phys. Chem. Chem. Phys. 7, 3297 (2005).

----- AuxJ basis set information -----
Your calculation utilizes the auxiliary basis: def2/J
   F. Weigend, Phys. Chem. Chem. Phys. 8, 1057 (2006).

================================================================================
                                        WARNINGS
                       Please study these warnings very carefully!
================================================================================


WARNING: Geometry Optimization
  ===> : Switching off AutoStart
         For restart on a previous wavefunction, please use MOREAD

INFO   : the flag for use of the SHARK integral package has been found!

================================================================================
                                       INPUT FILE
================================================================================
NAME = NO2_OH.inp
|  1> ! B3LYP def2-SVP Opt PAL8 FREQ 
|  2> #defgrid3 slowconv VeryTightSCF
|  3> *xyz 0 1
|  4>   C   -7.127206    2.613693   -0.240885
|  5>   C   -5.924788    3.222585   -0.240974
|  6>   C   -4.779153    2.540746   -0.144225
|  7>   C   -4.802478    1.205785   -0.042499
|  8>   C   -3.645708    0.537251    0.053965
|  9>   C   -3.643693   -0.796229    0.157054
| 10>   C   -4.782921   -1.516793    0.168609
| 11>   C   -4.785213   -2.874332    0.274234
| 12>   C   -5.983794   -3.489589    0.274660
| 13>   C   -7.130026   -2.808806    0.176512
| 14>   C   -7.107667   -1.473451    0.074061
| 15>   C   -8.263948   -0.804675   -0.022900
| 16>   C   -8.265896    0.528981   -0.125527
| 17>   C   -7.129086    1.254541   -0.136889
| 18>   C   -5.974291    0.544530   -0.037291
| 19>   C   -5.938046   -0.808347    0.068515
| 20>   C   -8.248133    3.371283   -0.342103
| 21>   C   -3.667120   -3.631864    0.377923
| 22>   C   -8.372397    4.711028   -0.448169
| 23>   C   -3.553292   -4.967612    0.487418
| 24>   O   -2.331142   -5.555305    0.582566
| 25>   N   -9.469701    5.315721   -0.536767
| 26>   O   -9.498337    6.626424   -0.635750
| 27>   O  -10.643042    4.725828   -0.538907
| 28>   H   -5.795495    4.311841   -0.319602
| 29>   H   -3.825392    3.097069   -0.149853
| 30>   H   -2.678988    1.071127    0.050360
| 31>   H   -2.637842   -1.232816    0.229884
| 32>   H   -6.101583   -4.580564    0.354864
| 33>   H   -8.082858   -3.366496    0.182232
| 34>   H   -9.230296   -1.339367   -0.019478
| 35>   H   -9.274762    0.958385   -0.197869
| 36>   H   -9.222930    2.866633   -0.341771
| 37>   H   -2.672936   -3.162052    0.380617
| 38>   H   -7.477448    5.351314   -0.461611
| 39>   H   -4.393386   -5.674552    0.510022
| 40>   H   -2.433857   -6.517997    0.657320
| 41> **                         ****END OF INPUT****
================================================================================

                       *****************************
                       * Geometry Optimization Run *
                       *****************************

Geometry optimization settings:
Update method            Update   .... BFGS
Choice of coordinates    CoordSys .... Z-matrix Internals
Initial Hessian          InHess   .... Almoef's Model

Convergence Tolerances:
Energy Change            TolE     ....  5.0000e-06 Eh
Max. Gradient            TolMAXG  ....  3.0000e-04 Eh/bohr
RMS Gradient             TolRMSG  ....  1.0000e-04 Eh/bohr
Max. Displacement        TolMAXD  ....  4.0000e-03 bohr
RMS Displacement         TolRMSD  ....  2.0000e-03 bohr
Strict Convergence                ....  False
------------------------------------------------------------------------------
                        ORCA OPTIMIZATION COORDINATE SETUP
------------------------------------------------------------------------------

The optimization will be done in new redundant internal coordinates
Making redundant internal coordinates   ...  (new redundants) done
Evaluating the initial hessian          ...  (Almloef) done
Evaluating the coordinates              ...  done
Calculating the B-matrix                .... done
Calculating the G-matrix                .... done
Diagonalizing the G-matrix              .... done
Small eigenvalue found = 5.258e-03
Small eigenvalue found = 1.150e-02
Small eigenvalue found = 1.647e-02
The first mode is                       ....   97
The number of degrees of freedom        ....  105

    -----------------------------------------------------------------
                    Redundant Internal Coordinates


    -----------------------------------------------------------------
         Definition                    Initial Value    Approx d2E/dq
    -----------------------------------------------------------------
      1. B(C   1,C   0)                  1.3478         0.729575   
      2. B(C   2,C   1)                  1.3367         0.759957   
      3. B(C   3,C   2)                  1.3390         0.753444   
      4. B(C   4,C   3)                  1.3395         0.752054   
      5. B(C   5,C   4)                  1.3375         0.757813   
      6. B(C   6,C   5)                  1.3480         0.728951   
      7. B(C   7,C   6)                  1.3616         0.693392   
      8. B(C   8,C   7)                  1.3473         0.730989   
      9. B(C   9,C   8)                  1.3368         0.759746   
     10. B(C  10,C   9)                  1.3395         0.752250   
     11. B(C  11,C  10)                  1.3393         0.752788   
     12. B(C  12,C  11)                  1.3376         0.757424   
     13. B(C  13,C  12)                  1.3487         0.727248   
     14. B(C  13,C   0)                  1.3631         0.689627   
     15. B(C  14,C   3)                  1.3455         0.735698   
     16. B(C  14,C  13)                  1.3593         0.699492   
     17. B(C  15,C  14)                  1.3575         0.704049   
     18. B(C  15,C  10)                  1.3455         0.735722   
     19. B(C  15,C   6)                  1.3588         0.700778   
     20. B(C  16,C   0)                  1.3567         0.706072   
     21. B(C  17,C   7)                  1.3545         0.711765   
     22. B(C  18,C  16)                  1.3497         0.724574   
     23. B(C  19,C  17)                  1.3451         0.736967   
     24. B(O  20,C  19)                  1.3594         0.626075   
     25. B(N  21,C  18)                  1.2560         0.915454   
     26. B(O  22,N  21)                  1.3147         0.660805   
     27. B(O  23,N  21)                  1.3133         0.664374   
     28. B(H  24,C   1)                  1.0997         0.347472   
     29. B(H  25,C   2)                  1.1042         0.341837   
     30. B(H  26,C   4)                  1.1043         0.341611   
     31. B(H  27,C   5)                  1.0989         0.348478   
     32. B(H  28,C   8)                  1.1002         0.346802   
     33. B(H  29,C   9)                  1.1041         0.341978   
     34. B(H  30,C  11)                  1.1044         0.341525   
     35. B(H  31,C  12)                  1.0988         0.348604   
     36. B(H  32,C  16)                  1.0977         0.350083   
     37. B(H  33,C  17)                  1.0996         0.347615   
     38. B(H  34,C  18)                  1.1005         0.346486   
     39. B(H  35,C  19)                  1.0982         0.349420   
     40. B(H  36,O  20)                  0.9710         0.499294   
     41. A(C   1,C   0,C  16)          119.0005         0.457704   
     42. A(C   1,C   0,C  13)          116.8519         0.455742   
     43. A(C  13,C   0,C  16)          124.1476         0.453034   
     44. A(C   0,C   1,H  24)          123.5293         0.360608   
     45. A(C   2,C   1,H  24)          114.1830         0.363128   
     46. A(C   0,C   1,C   2)          122.2877         0.463893   
     47. A(C   3,C   2,H  25)          121.1808         0.361583   
     48. A(C   1,C   2,C   3)          119.9413         0.466634   
     49. A(C   1,C   2,H  25)          118.8780         0.362115   
     50. A(C   2,C   3,C  14)          120.3591         0.463871   
     51. A(C   2,C   3,C   4)          119.2084         0.465742   
     52. A(C   4,C   3,C  14)          120.4325         0.463715   
     53. A(C   3,C   4,H  26)          120.9597         0.361429   
     54. A(C   5,C   4,H  26)          118.7458         0.361900   
     55. A(C   3,C   4,C   5)          120.2945         0.466235   
     56. A(C   6,C   5,H  27)          124.0971         0.360733   
     57. A(C   4,C   5,C   6)          122.1629         0.463580   
     58. A(C   4,C   5,H  27)          113.7401         0.363132   
     59. A(C   5,C   6,C   7)          122.3444         0.456124   
     60. A(C   7,C   6,C  15)          121.6079         0.452863   
     61. A(C   5,C   6,C  15)          116.0477         0.457005   
     62. A(C   6,C   7,C   8)          117.1817         0.456356   
     63. A(C   6,C   7,C  17)          124.2027         0.454146   
     64. A(C   8,C   7,C  17)          118.6155         0.458537   
     65. A(C   9,C   8,H  28)          114.7425         0.362991   
     66. A(C   7,C   8,H  28)          123.2359         0.360608   
     67. A(C   7,C   8,C   9)          122.0216         0.464033   
     68. A(C  10,C   9,H  29)          121.2237         0.361511   
     69. A(C   8,C   9,H  29)          118.8415         0.362123   
     70. A(C   8,C   9,C  10)          119.9349         0.466475   
     71. A(C  11,C  10,C  15)          120.2228         0.463800   
     72. A(C   9,C  10,C  15)          120.5055         0.463740   
     73. A(C   9,C  10,C  11)          119.2717         0.465690   
     74. A(C  12,C  11,H  30)          118.7949         0.361852   
     75. A(C  10,C  11,C  12)          120.3113         0.466275   
     76. A(C  10,C  11,H  30)          120.8938         0.361473   
     77. A(C  11,C  12,H  31)          113.3295         0.363122   
     78. A(C  11,C  12,C  13)          122.3992         0.463339   
     79. A(C  13,C  12,H  31)          124.2713         0.360611   
     80. A(C   0,C  13,C  12)          122.5625         0.455477   
     81. A(C  12,C  13,C  14)          115.7526         0.456657   
     82. A(C   0,C  13,C  14)          121.6849         0.452264   
     83. A(C  13,C  14,C  15)          123.2964         0.453970   
     84. A(C   3,C  14,C  15)          117.8285         0.458162   
     85. A(C   3,C  14,C  13)          118.8751         0.457620   
     86. A(C  10,C  15,C  14)          118.0176         0.458165   
     87. A(C   6,C  15,C  14)          123.2340         0.454121   
     88. A(C   6,C  15,C  10)          118.7484         0.457776   
     89. A(C  18,C  16,H  32)          112.0010         0.360645   
     90. A(C   0,C  16,H  32)          118.4879         0.359059   
     91. A(C   0,C  16,C  18)          129.5111         0.457130   
     92. A(C  19,C  17,H  33)          110.3397         0.361254   
     93. A(C   7,C  17,H  33)          120.5010         0.359118   
     94. A(C   7,C  17,C  19)          129.1593         0.459218   
     95. A(N  21,C  18,H  34)          115.4355         0.372389   
     96. A(C  16,C  18,H  34)          120.2402         0.360011   
     97. A(C  16,C  18,N  21)          124.3243         0.476205   
     98. A(O  20,C  19,H  35)          114.0788         0.349534   
     99. A(C  17,C  19,H  35)          125.1846         0.361573   
    100. A(C  17,C  19,O  20)          120.7365         0.445665   
    101. A(C  19,O  20,H  36)          109.8087         0.368163   
    102. A(O  22,N  21,O  23)          115.3541         0.432926   
    103. A(C  18,N  21,O  23)          124.3614         0.462393   
    104. A(C  18,N  21,O  22)          120.2846         0.461938   
    105. D(H  24,C   1,C   0,C  16)     -0.0224         0.037763   
    106. D(H  24,C   1,C   0,C  13)    179.9858         0.037763   
    107. D(C   2,C   1,C   0,C  16)    179.9815         0.037763   
    108. D(C   2,C   1,C   0,C  13)     -0.0104         0.037763   
    109. D(H  25,C   2,C   1,C   0)   -179.9958         0.041293   
    110. D(C   3,C   2,C   1,H  24)    179.9938         0.041293   
    111. D(C   3,C   2,C   1,C   0)     -0.0097         0.041293   
    112. D(H  25,C   2,C   1,H  24)      0.0077         0.041293   
    113. D(C  14,C   3,C   2,H  25)    179.9998         0.040520   
    114. D(C  14,C   3,C   2,C   1)      0.0140         0.040520   
    115. D(C   4,C   3,C   2,H  25)      0.0008         0.040520   
    116. D(C   4,C   3,C   2,C   1)   -179.9850         0.040520   
    117. D(H  26,C   4,C   3,C   2)     -0.0133         0.040356   
    118. D(C   5,C   4,C   3,C   2)    179.9758         0.040356   
    119. D(C   5,C   4,C   3,C  14)     -0.0232         0.040356   
    120. D(H  26,C   4,C   3,C  14)    179.9877         0.040356   
    121. D(H  27,C   5,C   4,H  26)     -0.0032         0.041038   
    122. D(C   6,C   5,C   4,C   3)     -0.0016         0.041038   
    123. D(C   6,C   5,C   4,H  26)    179.9878         0.041038   
    124. D(H  27,C   5,C   4,C   3)   -179.9925         0.041038   
    125. D(C  15,C   6,C   5,H  27)   -179.9799         0.037692   
    126. D(C   7,C   6,C   5,H  27)      0.0319         0.037692   
    127. D(C   7,C   6,C   5,C   4)   -179.9581         0.037692   
    128. D(C  15,C   6,C   5,C   4)      0.0301         0.037692   
    129. D(C  17,C   7,C   6,C  15)   -179.9382         0.033809   
    130. D(C  17,C   7,C   6,C   5)      0.0493         0.033809   
    131. D(C   8,C   7,C   6,C  15)      0.0414         0.033809   
    132. D(C   8,C   7,C   6,C   5)   -179.9711         0.033809   
    133. D(H  28,C   8,C   7,C   6)    179.9946         0.037923   
    134. D(C   9,C   8,C   7,C  17)    179.9667         0.037923   
    135. D(C   9,C   8,C   7,C   6)     -0.0140         0.037923   
    136. D(H  28,C   8,C   7,C  17)     -0.0246         0.037923   
    137. D(H  29,C   9,C   8,H  28)     -0.0047         0.041268   
    138. D(H  29,C   9,C   8,C   7)   -179.9967         0.041268   
    139. D(C  10,C   9,C   8,H  28)    179.9743         0.041268   
    140. D(C  10,C   9,C   8,C   7)     -0.0177         0.041268   
    141. D(C  15,C  10,C   9,H  29)   -179.9985         0.040379   
    142. D(C  15,C  10,C   9,C   8)      0.0231         0.040379   
    143. D(C  11,C  10,C   9,H  29)      0.0105         0.040379   
    144. D(C  11,C  10,C   9,C   8)   -179.9679         0.040379   
    145. D(H  30,C  11,C  10,C  15)    179.9991         0.040443   
    146. D(H  30,C  11,C  10,C   9)     -0.0099         0.040443   
    147. D(C  12,C  11,C  10,C  15)     -0.0228         0.040443   
    148. D(C  12,C  11,C  10,C   9)    179.9682         0.040443   
    149. D(H  31,C  12,C  11,H  30)      0.0016         0.040992   
    150. D(H  31,C  12,C  11,C  10)   -179.9770         0.040992   
    151. D(C  13,C  12,C  11,H  30)    179.9956         0.040992   
    152. D(C  13,C  12,C  11,C  10)      0.0170         0.040992   
    153. D(C  14,C  13,C  12,H  31)    179.9994         0.037500   
    154. D(C   0,C  13,C  12,H  31)      0.0153         0.037500   
    155. D(C   0,C  13,C  12,C  11)   -179.9780         0.037500   
    156. D(C  14,C  13,C   0,C  16)   -179.9646         0.033413   
    157. D(C  14,C  13,C   0,C   1)      0.0268         0.033413   
    158. D(C  14,C  13,C  12,C  11)      0.0061         0.037500   
    159. D(C  12,C  13,C   0,C  16)      0.0186         0.033413   
    160. D(C  12,C  13,C   0,C   1)   -179.9900         0.033413   
    161. D(C   3,C  14,C  13,C  12)    179.9927         0.034456   
    162. D(C   3,C  14,C  13,C   0)     -0.0230         0.034456   
    163. D(C  15,C  14,C   3,C   4)      0.0172         0.038459   
    164. D(C  15,C  14,C   3,C   2)   -179.9818         0.038459   
    165. D(C  13,C  14,C   3,C   4)   -179.9990         0.038459   
    166. D(C  15,C  14,C  13,C   0)    179.9599         0.034456   
    167. D(C  13,C  14,C   3,C   2)      0.0021         0.038459   
    168. D(C  15,C  14,C  13,C  12)     -0.0244         0.034456   
    169. D(C  10,C  15,C  14,C  13)      0.0191         0.034945   
    170. D(C   6,C  15,C  14,C  13)   -179.9697         0.034945   
    171. D(C   6,C  15,C  14,C   3)      0.0134         0.034945   
    172. D(C  14,C  15,C  10,C  11)      0.0053         0.038461   
    173. D(C  14,C  15,C  10,C   9)   -179.9856         0.038461   
    174. D(C   6,C  15,C  10,C  11)    179.9945         0.038461   
    175. D(C   6,C  15,C  10,C   9)      0.0036         0.038461   
    176. D(C  14,C  15,C   6,C   7)    179.9520         0.034594   
    177. D(C  14,C  15,C   6,C   5)     -0.0363         0.034594   
    178. D(C  10,C  15,C  14,C   3)   -179.9979         0.034945   
    179. D(C  10,C  15,C   6,C   7)     -0.0366         0.034594   
    180. D(C  10,C  15,C   6,C   5)    179.9751         0.034594   
    181. D(H  32,C  16,C   0,C  13)     -0.0433         0.035164   
    182. D(H  32,C  16,C   0,C   1)    179.9655         0.035164   
    183. D(C  18,C  16,C   0,C  13)    179.9284         0.035164   
    184. D(C  18,C  16,C   0,C   1)     -0.0629         0.035164   
    185. D(H  33,C  17,C   7,C   8)    179.9927         0.035783   
    186. D(H  33,C  17,C   7,C   6)     -0.0279         0.035783   
    187. D(C  19,C  17,C   7,C   8)     -0.0299         0.035783   
    188. D(C  19,C  17,C   7,C   6)    179.9494         0.035783   
    189. D(H  34,C  18,C  16,H  32)    179.9858         0.037200   
    190. D(H  34,C  18,C  16,C   0)      0.0127         0.037200   
    191. D(N  21,C  18,C  16,H  32)     -0.0189         0.037200   
    192. D(N  21,C  18,C  16,C   0)   -179.9920         0.037200   
    193. D(H  35,C  19,C  17,H  33)    179.9666         0.038604   
    194. D(H  35,C  19,C  17,C   7)     -0.0126         0.038604   
    195. D(O  20,C  19,C  17,H  33)      0.0134         0.038604   
    196. D(O  20,C  19,C  17,C   7)   -179.9657         0.038604   
    197. D(H  36,O  20,C  19,H  35)     -0.1607         0.028799   
    198. D(H  36,O  20,C  19,C  17)    179.7973         0.028799   
    199. D(O  23,N  21,C  18,H  34)    179.9529         0.074053   
    200. D(O  23,N  21,C  18,C  16)     -0.0426         0.074053   
    201. D(O  22,N  21,C  18,H  34)     -0.0623         0.074053   
    202. D(O  22,N  21,C  18,C  16)    179.9422         0.074053   
    -----------------------------------------------------------------

Number of atoms                         .... 37
Number of degrees of freedom            .... 202

         *************************************************************
         *                GEOMETRY OPTIMIZATION CYCLE   1            *
         *************************************************************
---------------------------------
CARTESIAN COORDINATES (ANGSTROEM)
---------------------------------
  C     -7.127206    2.613693   -0.240885
  C     -5.924788    3.222585   -0.240974
  C     -4.779153    2.540746   -0.144225
  C     -4.802478    1.205785   -0.042499
  C     -3.645708    0.537251    0.053965
  C     -3.643693   -0.796229    0.157054
  C     -4.782921   -1.516793    0.168609
  C     -4.785213   -2.874332    0.274234
  C     -5.983794   -3.489589    0.274660
  C     -7.130026   -2.808806    0.176512
  C     -7.107667   -1.473451    0.074061
  C     -8.263948   -0.804675   -0.022900
  C     -8.265896    0.528981   -0.125527
  C     -7.129086    1.254541   -0.136889
  C     -5.974291    0.544530   -0.037291
  C     -5.938046   -0.808347    0.068515
  C     -8.248133    3.371283   -0.342103
  C     -3.667120   -3.631864    0.377923
  C     -8.372397    4.711028   -0.448169
  C     -3.553292   -4.967612    0.487418
  O     -2.331142   -5.555305    0.582566
  N     -9.469701    5.315721   -0.536767
  O     -9.498337    6.626424   -0.635750
  O    -10.643042    4.725828   -0.538907
  H     -5.795495    4.311841   -0.319602
  H     -3.825392    3.097069   -0.149853
  H     -2.678988    1.071127    0.050360
  H     -2.637842   -1.232816    0.229884
  H     -6.101583   -4.580564    0.354864
  H     -8.082858   -3.366496    0.182232
  H     -9.230296   -1.339367   -0.019478
  H     -9.274762    0.958385   -0.197869
  H     -9.222930    2.866633   -0.341771
  H     -2.672936   -3.162052    0.380617
  H     -7.477448    5.351314   -0.461611
  H     -4.393386   -5.674552    0.510022
  H     -2.433857   -6.517997    0.657320

----------------------------
CARTESIAN COORDINATES (A.U.)
----------------------------
  NO LB      ZA    FRAG     MASS         X           Y           Z
   0 C     6.0000    0    12.011  -13.468467    4.939164   -0.455207
   1 C     6.0000    0    12.011  -11.196227    6.089803   -0.455375
   2 C     6.0000    0    12.011   -9.031290    4.801314   -0.272546
   3 C     6.0000    0    12.011   -9.075368    2.278603   -0.080311
   4 C     6.0000    0    12.011   -6.889390    1.015257    0.101979
   5 C     6.0000    0    12.011   -6.885582   -1.504655    0.296789
   6 C     6.0000    0    12.011   -9.038411   -2.866323    0.318625
   7 C     6.0000    0    12.011   -9.042742   -5.431700    0.518227
   8 C     6.0000    0    12.011  -11.307732   -6.594368    0.519032
   9 C     6.0000    0    12.011  -13.473796   -5.307874    0.333559
  10 C     6.0000    0    12.011  -13.431544   -2.784419    0.139955
  11 C     6.0000    0    12.011  -15.616599   -1.520615   -0.043275
  12 C     6.0000    0    12.011  -15.620280    0.999629   -0.237212
  13 C     6.0000    0    12.011  -13.472020    2.370739   -0.258683
  14 C     6.0000    0    12.011  -11.289774    1.029013   -0.070470
  15 C     6.0000    0    12.011  -11.221281   -1.527554    0.129475
  16 C     6.0000    0    12.011  -15.586712    6.370802   -0.646481
  17 C     6.0000    0    12.011   -6.929853   -6.863228    0.714171
  18 C     6.0000    0    12.011  -15.821537    8.902553   -0.846917
  19 C     6.0000    0    12.011   -6.714749   -9.387426    0.921087
  20 O     8.0000    0    15.999   -4.405220  -10.498005    1.100890
  21 N     7.0000    0    14.007  -17.895141   10.045257   -1.014343
  22 O     8.0000    0    15.999  -17.949256   12.522127   -1.201393
  23 O     8.0000    0    15.999  -20.112435    8.930521   -1.018387
  24 H     1.0000    0     1.008  -10.951898    8.148199   -0.603960
  25 H     1.0000    0     1.008   -7.228943    5.852612   -0.283181
  26 H     1.0000    0     1.008   -5.062554    2.024137    0.095167
  27 H     1.0000    0     1.008   -4.984799   -2.329685    0.434418
  28 H     1.0000    0     1.008  -11.530321   -8.656011    0.670596
  29 H     1.0000    0     1.008  -15.274388   -6.361755    0.344369
  30 H     1.0000    0     1.008  -17.442732   -2.531037   -0.036808
  31 H     1.0000    0     1.008  -17.526760    1.811085   -0.373918
  32 H     1.0000    0     1.008  -17.428812    5.417151   -0.645854
  33 H     1.0000    0     1.008   -5.051117   -5.975412    0.719262
  34 H     1.0000    0     1.008  -14.130329   10.112518   -0.872318
  35 H     1.0000    0     1.008   -8.302296  -10.723349    0.963802
  36 H     1.0000    0     1.008   -4.599323  -12.317229    1.242155

--------------------------------
INTERNAL COORDINATES (ANGSTROEM)
--------------------------------
 C      0   0   0     0.000000000000     0.00000000     0.00000000
 C      1   0   0     1.347797656293     0.00000000     0.00000000
 C      2   1   0     1.336691566573   122.28771634     0.00000000
 C      3   2   1     1.339034393218   119.94126204     0.00000000
 C      4   3   2     1.339537175801   119.20844763   180.01498784
 C      5   4   3     1.337460396627   120.29449723   179.97579545
 C      6   5   4     1.348030575360   122.16285426     0.00000000
 C      7   6   5     1.361643870625   122.34438209   180.04189033
 C      8   7   6     1.347270489206   117.18174771   180.02891492
 C      9   8   7     1.336767115401   122.02160806     0.00000000
 C     10   9   8     1.339465978779   119.93486913     0.00000000
 C     11  10   9     1.339271639608   119.27166957   180.03207197
 C     12  11  10     1.337600247521   120.31128083   179.96821511
 C     13  12  11     1.348667262428   122.39922583     0.00000000
 C      4   3   2     1.345522577015   120.35909830     0.00000000
 C     11  10   9     1.345513795014   120.50548146     0.02308411
 C      1   2   3     1.356711108141   119.00050087   179.98146471
 C      8   7   6     1.354525044580   124.20274070     0.04931781
 C     17   1   2     1.349669664428   129.51110068   359.93714244
 C     18   8   7     1.345053414595   129.15926779   179.94938251
 O     20  18   8     1.359443572442   120.73654987   180.03428022
 N     19  17   1     1.256017236454   124.32426416   180.00796549
 O     22  19  17     1.314747127395   120.28456281   179.94223098
 O     22  19  17     1.313281170706   124.36136318   359.95744160
 H      2   1   3     1.099717088968   123.52928543   179.99616134
 H      3   2   1     1.104168012503   118.87795508   180.00417702
 H      5   4   3     1.104347833701   120.95966469     0.00000000
 H      6   5   4     1.098930685562   113.74008838   180.00745127
 H      9   8   7     1.100242419089   123.23592911   179.99460333
 H     10   9   8     1.104056010682   118.84145218   180.00329185
 H     12  11  10     1.104416453179   120.89381486     0.00000000
 H     13  12  11     1.098832000870   113.32949145   180.02304169
 H     17   1   2     1.097679791165   118.48790273   179.96551755
 H     18   8   7     1.099605565117   120.50099483   359.97206325
 H     19  17   1     1.100491054830   120.24020219     0.00000000
 H     20  18   8     1.098195352955   125.18463198     0.00000000
 H     21  20  18     0.971037804931   109.80870816   179.79734973

---------------------------
INTERNAL COORDINATES (A.U.)
---------------------------
 C      0   0   0     0.000000000000     0.00000000     0.00000000
 C      1   0   0     2.546968454335     0.00000000     0.00000000
 C      2   1   0     2.525980986345   122.28771634     0.00000000
 C      3   2   1     2.530408287084   119.94126204     0.00000000
 C      4   3   2     2.531358408470   119.20844763   180.01498784
 C      5   4   3     2.527433864591   120.29449723   179.97579545
 C      6   5   4     2.547408607582   122.16285426     0.00000000
 C      7   6   5     2.573134007413   122.34438209   180.04189033
 C      8   7   6     2.545972252914   117.18174771   180.02891492
 C      9   8   7     2.526123752939   122.02160806     0.00000000
 C     10   9   8     2.531223865598   119.93486913     0.00000000
 C     11  10   9     2.530856617787   119.27166957   180.03207197
 C     12  11  10     2.527698144481   120.31128083   179.96821511
 C     13  12  11     2.548611771773   122.39922583     0.00000000
 C      4   3   2     2.542669177567   120.35909830     0.00000000
 C     11  10   9     2.542652581990   120.50548146     0.02308411
 C      1   2   3     2.563812437235   119.00050087   179.98146471
 C      8   7   6     2.559681375793   124.20274070     0.04931781
 C     17   1   2     2.550506037030   129.51110068   359.93714244
 C     18   8   7     2.541782589080   129.15926779   179.94938251
 O     20  18   8     2.568976046434   120.73654987   180.03428022
 N     19  17   1     2.373528596382   124.32426416   180.00796549
 O     22  19  17     2.484512006137   120.28456281   179.94223098
 O     22  19  17     2.481741749469   124.36136318   359.95744160
 H      2   1   3     2.078164122943   123.52928543   179.99616134
 H      3   2   1     2.086575149466   118.87795508   180.00417702
 H      5   4   3     2.086914962285   120.95966469     0.00000000
 H      6   5   4     2.076678035875   113.74008838   180.00745127
 H      9   8   7     2.079156853001   123.23592911   179.99460333
 H     10   9   8     2.086363496699   118.84145218   180.00329185
 H     12  11  10     2.087044634305   120.89381486     0.00000000
 H     13  12  11     2.076491548833   113.32949145   180.02304169
 H     17   1   2     2.074314188043   118.48790273   179.96551755
 H     18   8   7     2.077953373407   120.50099483   359.97206325
 H     19  17   1     2.079626706459   120.24020219     0.00000000
 H     20  18   8     2.075288458630   125.18463198     0.00000000
 H     21  20  18     1.834995517003   109.80870816   179.79734973

---------------------
BASIS SET INFORMATION
---------------------
There are 4 groups of distinct atoms

 Group   1 Type C   : 7s4p1d contracted to 3s2p1d pattern {511/31/1}
 Group   2 Type O   : 7s4p1d contracted to 3s2p1d pattern {511/31/1}
 Group   3 Type N   : 7s4p1d contracted to 3s2p1d pattern {511/31/1}
 Group   4 Type H   : 4s1p contracted to 2s1p pattern {31/1}

Atom   0C    basis set group =>   1
Atom   1C    basis set group =>   1
Atom   2C    basis set group =>   1
Atom   3C    basis set group =>   1
Atom   4C    basis set group =>   1
Atom   5C    basis set group =>   1
Atom   6C    basis set group =>   1
Atom   7C    basis set group =>   1
Atom   8C    basis set group =>   1
Atom   9C    basis set group =>   1
Atom  10C    basis set group =>   1
Atom  11C    basis set group =>   1
Atom  12C    basis set group =>   1
Atom  13C    basis set group =>   1
Atom  14C    basis set group =>   1
Atom  15C    basis set group =>   1
Atom  16C    basis set group =>   1
Atom  17C    basis set group =>   1
Atom  18C    basis set group =>   1
Atom  19C    basis set group =>   1
Atom  20O    basis set group =>   2
Atom  21N    basis set group =>   3
Atom  22O    basis set group =>   2
Atom  23O    basis set group =>   2
Atom  24H    basis set group =>   4
Atom  25H    basis set group =>   4
Atom  26H    basis set group =>   4
Atom  27H    basis set group =>   4
Atom  28H    basis set group =>   4
Atom  29H    basis set group =>   4
Atom  30H    basis set group =>   4
Atom  31H    basis set group =>   4
Atom  32H    basis set group =>   4
Atom  33H    basis set group =>   4
Atom  34H    basis set group =>   4
Atom  35H    basis set group =>   4
Atom  36H    basis set group =>   4
---------------------------------
AUXILIARY/J BASIS SET INFORMATION
---------------------------------
There are 4 groups of distinct atoms

 Group   1 Type C   : 12s5p4d2f1g contracted to 6s4p3d1f1g pattern {711111/2111/211/2/1}
 Group   2 Type O   : 12s5p4d2f1g contracted to 6s4p3d1f1g pattern {711111/2111/211/2/1}
 Group   3 Type N   : 12s5p4d2f1g contracted to 6s4p3d1f1g pattern {711111/2111/211/2/1}
 Group   4 Type H   : 5s2p1d contracted to 3s1p1d pattern {311/2/1}

Atom   0C    basis set group =>   1
Atom   1C    basis set group =>   1
Atom   2C    basis set group =>   1
Atom   3C    basis set group =>   1
Atom   4C    basis set group =>   1
Atom   5C    basis set group =>   1
Atom   6C    basis set group =>   1
Atom   7C    basis set group =>   1
Atom   8C    basis set group =>   1
Atom   9C    basis set group =>   1
Atom  10C    basis set group =>   1
Atom  11C    basis set group =>   1
Atom  12C    basis set group =>   1
Atom  13C    basis set group =>   1
Atom  14C    basis set group =>   1
Atom  15C    basis set group =>   1
Atom  16C    basis set group =>   1
Atom  17C    basis set group =>   1
Atom  18C    basis set group =>   1
Atom  19C    basis set group =>   1
Atom  20O    basis set group =>   2
Atom  21N    basis set group =>   3
Atom  22O    basis set group =>   2
Atom  23O    basis set group =>   2
Atom  24H    basis set group =>   4
Atom  25H    basis set group =>   4
Atom  26H    basis set group =>   4
Atom  27H    basis set group =>   4
Atom  28H    basis set group =>   4
Atom  29H    basis set group =>   4
Atom  30H    basis set group =>   4
Atom  31H    basis set group =>   4
Atom  32H    basis set group =>   4
Atom  33H    basis set group =>   4
Atom  34H    basis set group =>   4
Atom  35H    basis set group =>   4
Atom  36H    basis set group =>   4


           ************************************************************
           *        Program running with 8 parallel MPI-processes     *
           *              working on a common directory               *
           ************************************************************
------------------------------------------------------------------------------
                           ORCA GTO INTEGRAL CALCULATION
                           -- RI-GTO INTEGRALS CHOSEN --
------------------------------------------------------------------------------
------------------------------------------------------------------------------
                   ___                                                        
                  /   \      - P O W E R E D   B Y -                         
                 /     \                                                     
                 |  |  |   _    _      __       _____    __    __             
                 |  |  |  | |  | |    /  \     |  _  \  |  |  /  |          
                  \  \/   | |  | |   /    \    | | | |  |  | /  /          
                 / \  \   | |__| |  /  /\  \   | |_| |  |  |/  /          
                |  |  |   |  __  | /  /__\  \  |    /   |      \           
                |  |  |   | |  | | |   __   |  |    \   |  |\   \          
                \     /   | |  | | |  |  |  |  | |\  \  |  | \   \       
                 \___/    |_|  |_| |__|  |__|  |_| \__\ |__|  \__/        
                                                                              
                      - O R C A' S   B I G   F R I E N D -                    
                                      &                                       
                       - I N T E G R A L  F E E D E R -                       
                                                                              
 v1 FN, 2020, v2 2021                                                         
------------------------------------------------------------------------------


Reading SHARK input file NO2_OH.SHARKINP.tmp ... ok
----------------------
SHARK INTEGRAL PACKAGE
----------------------

Number of atoms                             ...     37
Number of basis functions                   ...    401
Number of shells                            ...    183
Maximum angular momentum                    ...      2
Integral batch strategy                     ... SHARK/LIBINT Hybrid
RI-J (if used) integral strategy            ... SPLIT-RIJ (Revised 2003 algorithm where possible)
Printlevel                                  ...      1
Contraction scheme used                     ... SEGMENTED contraction
Coulomb Range Separation                    ... NOT USED
Exchange Range Separation                   ... NOT USED
Finite Nucleus Model                        ... NOT USED
Auxiliary Coulomb fitting basis             ... AVAILABLE
   # of basis functions in Aux-J            ...   1319
   # of shells in Aux-J                     ...    425
   Maximum angular momentum in Aux-J        ...      4
Auxiliary J/K fitting basis                 ... NOT available
Auxiliary Correlation fitting basis         ... NOT available
Auxiliary 'external' fitting basis          ... NOT available
Integral threshold                          ...     2.500000e-11
Primitive cut-off                           ...     2.500000e-12
Primitive pair pre-selection threshold      ...     2.500000e-12

Calculating pre-screening integrals         ... done (  0.0 sec) Dimension = 183
Organizing shell pair data                  ... done (  3.6 sec)
Shell pair information
Total number of shell pairs                 ...     16836
Shell pairs after pre-screening             ...     11731
Total number of primitive shell pairs       ...     62832
Primitive shell pairs kept                  ...     28190
          la=0 lb=0:   3421 shell pairs
          la=1 lb=0:   4281 shell pairs
          la=1 lb=1:   1396 shell pairs
          la=2 lb=0:   1488 shell pairs
          la=2 lb=1:    968 shell pairs
          la=2 lb=2:    177 shell pairs

Calculating one electron integrals          ... done (  0.0 sec)
Calculating RI/J V-Matrix + Cholesky decomp.... done (  2.7 sec)
Calculating Nuclear repulsion               ... done (  0.0 sec) ENN=   1861.975800938593 Eh

SHARK setup successfully completed in   7.8 seconds

Maximum memory used throughout the entire GTOINT-calculation: 22.0 MB


           ************************************************************
           *        Program running with 8 parallel MPI-processes     *
           *              working on a common directory               *
           ************************************************************
-------------------------------------------------------------------------------
                                 ORCA SCF
-------------------------------------------------------------------------------

------------
SCF SETTINGS
------------
Hamiltonian:
 Density Functional     Method          .... DFT(GTOs)
 Exchange Functional    Exchange        .... B88
   X-Alpha parameter    XAlpha          ....  0.666667
   Becke's b parameter  XBeta           ....  0.004200
 Correlation Functional Correlation     .... LYP
 LDA part of GGA corr.  LDAOpt          .... VWN-5
 Gradients option       PostSCFGGA      .... off
 Hybrid DFT is turned on
   Fraction HF Exchange ScalHFX         ....  0.200000
   Scaling of DF-GGA-X  ScalDFX         ....  0.720000
   Scaling of DF-GGA-C  ScalDFC         ....  0.810000
   Scaling of DF-LDA-C  ScalLDAC        ....  1.000000
   Perturbative correction              ....  0.000000
   Density functional embedding theory  .... OFF
   NL short-range parameter             ....  4.800000
 RI-approximation to the Coulomb term is turned on
   Number of AuxJ basis functions       .... 1319
   RIJ-COSX (HFX calculated with COS-X)).... on


General Settings:
 Integral files         IntName         .... NO2_OH
 Hartree-Fock type      HFTyp           .... RHF
 Total Charge           Charge          ....    0
 Multiplicity           Mult            ....    1
 Number of Electrons    NEL             ....  164
 Basis Dimension        Dim             ....  401
 Nuclear Repulsion      ENuc            ....   1861.9758009386 Eh

Convergence Acceleration:
 DIIS                   CNVDIIS         .... on
   Start iteration      DIISMaxIt       ....    12
   Startup error        DIISStart       ....  0.200000
   # of expansion vecs  DIISMaxEq       ....     5
   Bias factor          DIISBfac        ....   1.050
   Max. coefficient     DIISMaxC        ....  10.000
 Trust-Rad. Augm. Hess. CNVTRAH         .... auto
   Auto Start mean grad. ratio tolernc. ....  1.125000
   Auto Start start iteration           ....    20
   Auto Start num. interpolation iter.  ....    10
   Max. Number of Micro iterations      ....    16
   Max. Number of Macro iterations      .... Maxiter - #DIIS iter
   Number of Davidson start vectors     ....     2
   Converg. threshold I  (grad. norm)   ....   1.000e-05
   Converg. threshold II (energy diff.) ....   1.000e-08
   Grad. Scal. Fac. for Micro threshold ....   0.100
   Minimum threshold for Micro iter.    ....   0.010
   NR start threshold (gradient norm)   ....   0.001
   Initial trust radius                 ....   0.400
   Minimum AH scaling param. (alpha)    ....   1.000
   Maximum AH scaling param. (alpha)    .... 1000.000
   Orbital update algorithm             .... Taylor
   White noise on init. David. guess    .... on
   Maximum white noise                  ....   0.010
   Quad. conv. algorithm                .... NR
 SOSCF                  CNVSOSCF        .... on
   Start iteration      SOSCFMaxIt      ....   150
   Startup grad/error   SOSCFStart      ....  0.003300
 Level Shifting         CNVShift        .... on
   Level shift para.    LevelShift      ....    0.2500
   Turn off err/grad.   ShiftErr        ....    0.0010
 Zerner damping         CNVZerner       .... off
 Static damping         CNVDamp         .... on
   Fraction old density DampFac         ....    0.7000
   Max. Damping (<1)    DampMax         ....    0.9800
   Min. Damping (>=0)   DampMin         ....    0.0000
   Turn off err/grad.   DampErr         ....    0.1000
 Fernandez-Rico         CNVRico         .... off

SCF Procedure:
 Maximum # iterations   MaxIter         ....   125
 SCF integral mode      SCFMode         .... Direct
   Integral package                     .... SHARK and LIBINT hybrid scheme
 Reset frequency        DirectResetFreq ....    20
 Integral Threshold     Thresh          ....  2.500e-11 Eh
 Primitive CutOff       TCut            ....  2.500e-12 Eh

Convergence Tolerance:
 Convergence Check Mode ConvCheckMode   .... Total+1el-Energy
 Convergence forced     ConvForced      .... 0
 Energy Change          TolE            ....  1.000e-08 Eh
 1-El. energy change                    ....  1.000e-05 Eh
 Orbital Gradient       TolG            ....  1.000e-05
 Orbital Rotation angle TolX            ....  1.000e-05
 DIIS Error             TolErr          ....  5.000e-07


Diagonalization of the overlap matrix:
Smallest eigenvalue                        ... 1.181e-04
Time for diagonalization                   ...    0.034 sec
Threshold for overlap eigenvalues          ... 1.000e-08
Number of eigenvalues below threshold      ... 0
Time for construction of square roots      ...    0.026 sec
Total time needed                          ...    0.062 sec

Time for model grid setup =    0.332 sec

------------------------------
INITIAL GUESS: MODEL POTENTIAL
------------------------------
Loading Hartree-Fock densities                     ... done
Calculating cut-offs                               ... done
Initializing the effective Hamiltonian             ... done
Setting up the integral package (SHARK)            ... done
Starting the Coulomb interaction                   ... done (   0.2 sec)
Reading the grid                                   ... done
Mapping shells                                     ... done
Starting the XC term evaluation                    ... done (   0.1 sec)
  promolecular density results
     # of electrons  =    163.988631236
     EX              =   -138.369517353
     EC              =     -5.681034267
     EX+EC           =   -144.050551620
Transforming the Hamiltonian                       ... done (   0.0 sec)
Diagonalizing the Hamiltonian                      ... done (   0.0 sec)
Back transforming the eigenvectors                 ... done (   0.0 sec)
Now organizing SCF variables                       ... done
                      ------------------
                      INITIAL GUESS DONE (   0.8 sec)
                      ------------------
-------------------
DFT GRID GENERATION
-------------------

General Integration Accuracy     IntAcc      ... 4.388
Radial Grid Type                 RadialGrid  ... OptM3 with GC (2021)
Angular Grid (max. ang.)         AngularGrid ... 4 (Lebedev-302)
Angular grid pruning method      GridPruning ... 4 (adaptive)
Weight generation scheme         WeightScheme... Becke
Basis function cutoff            BFCut       ... 1.0000e-11
Integration weight cutoff        WCut        ... 1.0000e-14
Angular grids for H and He will be reduced by one unit
Partially contracted basis set               ... off
Rotationally invariant grid construction     ... off

Total number of grid points                  ...   184136
Total number of batches                      ...     2896
Average number of points per batch           ...       63
Average number of grid points per atom       ...     4977
Time for grid setup =    3.150 sec

--------------------
COSX GRID GENERATION
--------------------

GRIDX 1
-------
General Integration Accuracy     IntAcc      ... 3.816
Radial Grid Type                 RadialGrid  ... OptM3 with GC (2021)
Angular Grid (max. ang.)         AngularGrid ... 1 (Lebedev-50)
Angular grid pruning method      GridPruning ... 4 (adaptive)
Weight generation scheme         WeightScheme... Becke
Basis function cutoff            BFCut       ... 1.0000e-11
Integration weight cutoff        WCut        ... 1.0000e-14
Angular grids for H and He will be reduced by one unit
Partially contracted basis set               ... on
Rotationally invariant grid construction     ... off

Total number of grid points                  ...    23424
Total number of batches                      ...      382
Average number of points per batch           ...       61
Average number of grid points per atom       ...      633
UseSFitting                                  ... on

GRIDX 2
-------
General Integration Accuracy     IntAcc      ... 4.020
Radial Grid Type                 RadialGrid  ... OptM3 with GC (2021)
Angular Grid (max. ang.)         AngularGrid ... 2 (Lebedev-110)
Angular grid pruning method      GridPruning ... 4 (adaptive)
Weight generation scheme         WeightScheme... Becke
Basis function cutoff            BFCut       ... 1.0000e-11
Integration weight cutoff        WCut        ... 1.0000e-14
Angular grids for H and He will be reduced by one unit
Partially contracted basis set               ... on
Rotationally invariant grid construction     ... off

Total number of grid points                  ...    51563
Total number of batches                      ...      825
Average number of points per batch           ...       62
Average number of grid points per atom       ...     1394
UseSFitting                                  ... on

GRIDX 3
-------
General Integration Accuracy     IntAcc      ... 4.338
Radial Grid Type                 RadialGrid  ... OptM3 with GC (2021)
Angular Grid (max. ang.)         AngularGrid ... 3 (Lebedev-194)
Angular grid pruning method      GridPruning ... 4 (adaptive)
Weight generation scheme         WeightScheme... Becke
Basis function cutoff            BFCut       ... 1.0000e-11
Integration weight cutoff        WCut        ... 1.0000e-14
Angular grids for H and He will be reduced by one unit
Partially contracted basis set               ... on
Rotationally invariant grid construction     ... off

Total number of grid points                  ...   113202
Total number of batches                      ...     1786
Average number of points per batch           ...       63
Average number of grid points per atom       ...     3060
UseSFitting                                  ... on

Time for X-Grid setup             =    2.338 sec

--------------
SCF ITERATIONS
--------------
ITER       Energy         Delta-E        Max-DP      RMS-DP      [F,P]     Damp
               ***  Starting incremental Fock matrix formation  ***
  0  -1048.1922855208   0.000000000000 0.19961972  0.00368296  0.2627477 0.7000
  1  -1048.4525277861  -0.260242265319 0.12288758  0.00244420  0.0995791 0.7000
                               ***Turning on DIIS***
  2  -1048.5581569029  -0.105629116785 0.23007524  0.00473698  0.0408708 0.0000
  3  -1048.7289596800  -0.170802777164 0.08140709  0.00114821  0.0485579 0.0000
  4  -1048.7621473083  -0.033187628228 0.02152235  0.00030357  0.0278617 0.0000
  5  -1048.7648912676  -0.002743959386 0.01285096  0.00016495  0.0080412 0.0000
                      *** Initiating the SOSCF procedure ***
                           *** Shutting down DIIS ***
                      *** Re-Reading the Fockian *** 
                      *** Removing any level shift *** 
ITER      Energy       Delta-E        Grad      Rot      Max-DP    RMS-DP
  6  -1048.76511431  -0.0002230452  0.000781  0.000781  0.002621  0.000051
               *** Restarting incremental Fock matrix formation ***
  7  -1048.76503692   0.0000773970  0.000435  0.004453  0.002077  0.000050
  8  -1048.76504737  -0.0000104542  0.000372  0.002170  0.001626  0.000034
  9  -1048.76504963  -0.0000022633  0.000294  0.002139  0.000983  0.000022
 10  -1048.76505168  -0.0000020515  0.000368  0.001371  0.001258  0.000019
 11  -1048.76505107   0.0000006180  0.000313  0.001164  0.000948  0.000015
 12  -1048.76505319  -0.0000021208  0.000107  0.000648  0.000444  0.000010
 13  -1048.76505291   0.0000002755  0.000139  0.000675  0.000325  0.000008
 14  -1048.76505377  -0.0000008572  0.000044  0.000168  0.000155  0.000003
 15  -1048.76505370   0.0000000663  0.000048  0.000122  0.000109  0.000002
 16  -1048.76505381  -0.0000001063  0.000005  0.000025  0.000050  0.000001
 17  -1048.76505380   0.0000000136  0.000008  0.000026  0.000031  0.000000
                  ***Gradient check signals convergence***
              ***Rediagonalizing the Fockian in SOSCF/NRSCF***

               *****************************************************
               *                     SUCCESS                       *
               *           SCF CONVERGED AFTER  18 CYCLES          *
               *****************************************************

Old exchange energy                            =    -28.020318364 Eh
New exchange energy                            =    -28.020385069 Eh
Exchange energy change after final integration =     -0.000066705 Eh
Total energy after final integration           =  -1048.765120519 Eh
Final COS-X integration done in                =    10.001 sec

----------------
TOTAL SCF ENERGY
----------------

Total Energy       :        -1048.76512052 Eh          -28538.34979 eV

Components:
Nuclear Repulsion  :         1861.97580094 Eh           50666.93740 eV
Electronic Energy  :        -2910.74092146 Eh          -79205.28719 eV
One Electron Energy:        -5122.28243988 Eh         -139384.39135 eV
Two Electron Energy:         2211.54151842 Eh           60179.10416 eV
Max COSX asymmetry :            0.00000345 Eh               0.00009 eV

Virial components:
Potential Energy   :        -2091.59122858 Eh          -56915.09084 eV
Kinetic Energy     :         1042.82610806 Eh           28376.74105 eV
Virial Ratio       :            2.00569511


DFT components:
N(Alpha)           :       82.000124606220 electrons
N(Beta)            :       82.000124606220 electrons
N(Total)           :      164.000249212440 electrons
E(X)               :     -111.406415037524 Eh       
E(C)               :       -6.678377259753 Eh       
E(XC)              :     -118.084792297277 Eh       
DFET-embed. en.    :        0.000000000000 Eh       

---------------
SCF CONVERGENCE
---------------

  Last Energy change         ...   -1.8028e-08  Tolerance :   1.0000e-08
  Last MAX-Density change    ...    4.4409e-15  Tolerance :   1.0000e-07
  Last RMS-Density change    ...    4.9347e-17  Tolerance :   5.0000e-09
  Last Orbital Gradient      ...    1.1572e-06  Tolerance :   1.0000e-05
  Last Orbital Rotation      ...    8.2666e-06  Tolerance :   1.0000e-05

             **** THE GBW FILE WAS UPDATED (NO2_OH.gbw) ****
             **** DENSITY NO2_OH.scfp WAS UPDATED ****
             **** ENERGY FILE WAS UPDATED (NO2_OH.en.tmp) ****
             **** THE GBW FILE WAS UPDATED (NO2_OH.gbw) ****
             **** DENSITY NO2_OH.scfp WAS UPDATED ****
----------------
ORBITAL ENERGIES
----------------

  NO   OCC          E(Eh)            E(eV) 
   0   2.0000     -19.192446      -522.2530 
   1   2.0000     -19.110462      -520.0221 
   2   2.0000     -19.107640      -519.9453 
   3   2.0000     -14.501605      -394.6087 
   4   2.0000     -10.271257      -279.4951 
   5   2.0000     -10.221837      -278.1503 
   6   2.0000     -10.213510      -277.9237 
   7   2.0000     -10.202761      -277.6312 
   8   2.0000     -10.200664      -277.5742 
   9   2.0000     -10.196969      -277.4736 
  10   2.0000     -10.196934      -277.4727 
  11   2.0000     -10.196125      -277.4507 
  12   2.0000     -10.194974      -277.4194 
  13   2.0000     -10.193717      -277.3851 
  14   2.0000     -10.193131      -277.3692 
  15   2.0000     -10.192615      -277.3552 
  16   2.0000     -10.192410      -277.3496 
  17   2.0000     -10.191803      -277.3330 
  18   2.0000     -10.191165      -277.3157 
  19   2.0000     -10.191083      -277.3135 
  20   2.0000     -10.190457      -277.2964 
  21   2.0000     -10.189886      -277.2809 
  22   2.0000     -10.188725      -277.2493 
  23   2.0000     -10.183762      -277.1142 
  24   2.0000      -1.128430       -30.7061 
  25   2.0000      -1.073229       -29.2040 
  26   2.0000      -0.948742       -25.8166 
  27   2.0000      -0.939018       -25.5520 
  28   2.0000      -0.907073       -24.6827 
  29   2.0000      -0.876752       -23.8576 
  30   2.0000      -0.866260       -23.5721 
  31   2.0000      -0.844218       -22.9723 
  32   2.0000      -0.815214       -22.1831 
  33   2.0000      -0.797416       -21.6988 
  34   2.0000      -0.774694       -21.0805 
  35   2.0000      -0.755821       -20.5669 
  36   2.0000      -0.744545       -20.2601 
  37   2.0000      -0.705195       -19.1893 
  38   2.0000      -0.669194       -18.2097 
  39   2.0000      -0.663849       -18.0643 
  40   2.0000      -0.650420       -17.6988 
  41   2.0000      -0.634022       -17.2526 
  42   2.0000      -0.601423       -16.3656 
  43   2.0000      -0.587186       -15.9781 
  44   2.0000      -0.568796       -15.4777 
  45   2.0000      -0.560071       -15.2403 
  46   2.0000      -0.553046       -15.0491 
  47   2.0000      -0.538761       -14.6604 
  48   2.0000      -0.525422       -14.2975 
  49   2.0000      -0.514080       -13.9888 
  50   2.0000      -0.508218       -13.8293 
  51   2.0000      -0.492131       -13.3916 
  52   2.0000      -0.487015       -13.2524 
  53   2.0000      -0.478837       -13.0298 
  54   2.0000      -0.468050       -12.7363 
  55   2.0000      -0.467548       -12.7226 
  56   2.0000      -0.458792       -12.4844 
  57   2.0000      -0.453529       -12.3412 
  58   2.0000      -0.447453       -12.1758 
  59   2.0000      -0.435774       -11.8580 
  60   2.0000      -0.428608       -11.6630 
  61   2.0000      -0.415074       -11.2947 
  62   2.0000      -0.413248       -11.2450 
  63   2.0000      -0.411875       -11.2077 
  64   2.0000      -0.405183       -11.0256 
  65   2.0000      -0.402468       -10.9517 
  66   2.0000      -0.389582       -10.6011 
  67   2.0000      -0.386049       -10.5049 
  68   2.0000      -0.380185       -10.3453 
  69   2.0000      -0.361011        -9.8236 
  70   2.0000      -0.360724        -9.8158 
  71   2.0000      -0.347055        -9.4438 
  72   2.0000      -0.337547        -9.1851 
  73   2.0000      -0.320288        -8.7155 
  74   2.0000      -0.303528        -8.2594 
  75   2.0000      -0.281143        -7.6503 
  76   2.0000      -0.272424        -7.4130 
  77   2.0000      -0.259157        -7.0520 
  78   2.0000      -0.250129        -6.8064 
  79   2.0000      -0.249330        -6.7846 
  80   2.0000      -0.229557        -6.2466 
  81   2.0000      -0.201626        -5.4865 
  82   0.0000      -0.114806        -3.1240 
  83   0.0000      -0.064416        -1.7529 
  84   0.0000      -0.041235        -1.1221 
  85   0.0000      -0.022086        -0.6010 
  86   0.0000      -0.004739        -0.1290 
  87   0.0000       0.015425         0.4197 
  88   0.0000       0.031778         0.8647 
  89   0.0000       0.044501         1.2109 
  90   0.0000       0.049233         1.3397 
  91   0.0000       0.051580         1.4036 
  92   0.0000       0.063782         1.7356 
  93   0.0000       0.072196         1.9645 
  94   0.0000       0.091556         2.4914 
  95   0.0000       0.099930         2.7192 
  96   0.0000       0.101952         2.7743 
  97   0.0000       0.120142         3.2692 
  98   0.0000       0.120413         3.2766 
  99   0.0000       0.128483         3.4962 
 100   0.0000       0.167341         4.5536 
 101   0.0000       0.182115         4.9556 
 102   0.0000       0.182222         4.9585 
 103   0.0000       0.195548         5.3211 
 104   0.0000       0.200902         5.4668 
 105   0.0000       0.207089         5.6352 
 106   0.0000       0.217849         5.9280 
 107   0.0000       0.222041         6.0420 
 108   0.0000       0.235446         6.4068 
 109   0.0000       0.236960         6.4480 
 110   0.0000       0.243795         6.6340 
 111   0.0000       0.256585         6.9820 
 112   0.0000       0.267626         7.2825 
 113   0.0000       0.271733         7.3942 
 114   0.0000       0.271983         7.4010 
 115   0.0000       0.279277         7.5995 
 116   0.0000       0.280182         7.6241 
 117   0.0000       0.291155         7.9227 
 118   0.0000       0.293462         7.9855 
 119   0.0000       0.311187         8.4678 
 120   0.0000       0.318456         8.6656 
 121   0.0000       0.327646         8.9157 
 122   0.0000       0.333494         9.0748 
 123   0.0000       0.335606         9.1323 
 124   0.0000       0.339853         9.2479 
 125   0.0000       0.358498         9.7552 
 126   0.0000       0.362520         9.8647 
 127   0.0000       0.367459         9.9991 
 128   0.0000       0.374444        10.1891 
 129   0.0000       0.392204        10.6724 
 130   0.0000       0.398539        10.8448 
 131   0.0000       0.409785        11.1508 
 132   0.0000       0.417957        11.3732 
 133   0.0000       0.418355        11.3840 
 134   0.0000       0.426132        11.5957 
 135   0.0000       0.431991        11.7551 
 136   0.0000       0.441861        12.0237 
 137   0.0000       0.445624        12.1260 
 138   0.0000       0.453827        12.3493 
 139   0.0000       0.455390        12.3918 
 140   0.0000       0.468345        12.7443 
 141   0.0000       0.469742        12.7823 
 142   0.0000       0.478233        13.0134 
 143   0.0000       0.483109        13.1461 
 144   0.0000       0.485160        13.2019 
 145   0.0000       0.490009        13.3338 
 146   0.0000       0.495877        13.4935 
 147   0.0000       0.503462        13.6999 
 148   0.0000       0.518500        14.1091 
 149   0.0000       0.522014        14.2047 
 150   0.0000       0.530571        14.4376 
 151   0.0000       0.531737        14.4693 
 152   0.0000       0.534709        14.5502 
 153   0.0000       0.543989        14.8027 
 154   0.0000       0.554964        15.1013 
 155   0.0000       0.563480        15.3331 
 156   0.0000       0.576967        15.7001 
 157   0.0000       0.576985        15.7006 
 158   0.0000       0.588923        16.0254 
 159   0.0000       0.592090        16.1116 
 160   0.0000       0.600473        16.3397 
 161   0.0000       0.603700        16.4275 
 162   0.0000       0.606423        16.5016 
 163   0.0000       0.610661        16.6169 
 164   0.0000       0.628892        17.1130 
 165   0.0000       0.636176        17.3112 
 166   0.0000       0.642634        17.4870 
 167   0.0000       0.644360        17.5339 
 168   0.0000       0.645160        17.5557 
 169   0.0000       0.648285        17.6407 
 170   0.0000       0.662047        18.0152 
 171   0.0000       0.662380        18.0243 
 172   0.0000       0.668199        18.1826 
 173   0.0000       0.668919        18.2022 
 174   0.0000       0.685874        18.6636 
 175   0.0000       0.690738        18.7960 
 176   0.0000       0.710550        19.3351 
 177   0.0000       0.723085        19.6761 
 178   0.0000       0.728488        19.8232 
 179   0.0000       0.732635        19.9360 
 180   0.0000       0.739189        20.1144 
 181   0.0000       0.743446        20.2302 
 182   0.0000       0.753073        20.4921 
 183   0.0000       0.762128        20.7386 
 184   0.0000       0.764457        20.8019 
 185   0.0000       0.792969        21.5778 
 186   0.0000       0.793504        21.5924 
 187   0.0000       0.811577        22.0841 
 188   0.0000       0.821177        22.3454 
 189   0.0000       0.825642        22.4669 
 190   0.0000       0.827353        22.5134 
 191   0.0000       0.836306        22.7570 
 192   0.0000       0.843930        22.9645 
 193   0.0000       0.862138        23.4600 
 194   0.0000       0.867455        23.6047 
 195   0.0000       0.878720        23.9112 
 196   0.0000       0.879335        23.9279 
 197   0.0000       0.896119        24.3846 
 198   0.0000       0.902517        24.5587 
 199   0.0000       0.909865        24.7587 
 200   0.0000       0.928051        25.2536 
 201   0.0000       0.938123        25.5276 
 202   0.0000       0.938912        25.5491 
 203   0.0000       0.939527        25.5658 
 204   0.0000       0.947720        25.7888 
 205   0.0000       0.968555        26.3557 
 206   0.0000       0.982847        26.7446 
 207   0.0000       0.991592        26.9826 
 208   0.0000       1.019667        27.7466 
 209   0.0000       1.020567        27.7710 
 210   0.0000       1.033678        28.1278 
 211   0.0000       1.051987        28.6260 
 212   0.0000       1.055372        28.7181 
 213   0.0000       1.078215        29.3397 
 214   0.0000       1.083927        29.4952 
 215   0.0000       1.105637        30.0859 
 216   0.0000       1.129419        30.7331 
 217   0.0000       1.139873        31.0175 
 218   0.0000       1.143795        31.1242 
 219   0.0000       1.154486        31.4152 
 220   0.0000       1.167820        31.7780 
 221   0.0000       1.170696        31.8563 
 222   0.0000       1.182649        32.1815 
 223   0.0000       1.193021        32.4638 
 224   0.0000       1.203566        32.7507 
 225   0.0000       1.207954        32.8701 
 226   0.0000       1.208576        32.8870 
 227   0.0000       1.220121        33.2012 
 228   0.0000       1.222371        33.2624 
 229   0.0000       1.232170        33.5291 
 230   0.0000       1.237653        33.6782 
 231   0.0000       1.241451        33.7816 
 232   0.0000       1.241834        33.7920 
 233   0.0000       1.248687        33.9785 
 234   0.0000       1.249339        33.9963 
 235   0.0000       1.268866        34.5276 
 236   0.0000       1.270161        34.5628 
 237   0.0000       1.283539        34.9269 
 238   0.0000       1.286841        35.0167 
 239   0.0000       1.303845        35.4794 
 240   0.0000       1.312955        35.7273 
 241   0.0000       1.322845        35.9965 
 242   0.0000       1.333999        36.3000 
 243   0.0000       1.345855        36.6226 
 244   0.0000       1.355252        36.8783 
 245   0.0000       1.356057        36.9002 
 246   0.0000       1.357611        36.9425 
 247   0.0000       1.357665        36.9439 
 248   0.0000       1.380182        37.5567 
 249   0.0000       1.387086        37.7445 
 250   0.0000       1.410739        38.3882 
 251   0.0000       1.411277        38.4028 
 252   0.0000       1.423801        38.7436 
 253   0.0000       1.446480        39.3607 
 254   0.0000       1.462650        39.8007 
 255   0.0000       1.466385        39.9024 
 256   0.0000       1.487012        40.4637 
 257   0.0000       1.500587        40.8331 
 258   0.0000       1.512549        41.1586 
 259   0.0000       1.548772        42.1442 
 260   0.0000       1.645770        44.7837 
 261   0.0000       1.647734        44.8371 
 262   0.0000       1.670721        45.4626 
 263   0.0000       1.672371        45.5075 
 264   0.0000       1.680814        45.7373 
 265   0.0000       1.685211        45.8569 
 266   0.0000       1.695568        46.1388 
 267   0.0000       1.714461        46.6529 
 268   0.0000       1.716991        46.7217 
 269   0.0000       1.726279        46.9744 
 270   0.0000       1.730592        47.0918 
 271   0.0000       1.731971        47.1293 
 272   0.0000       1.742746        47.4225 
 273   0.0000       1.754814        47.7509 
 274   0.0000       1.757390        47.8210 
 275   0.0000       1.763083        47.9759 
 276   0.0000       1.773878        48.2697 
 277   0.0000       1.775685        48.3188 
 278   0.0000       1.778468        48.3946 
 279   0.0000       1.790529        48.7228 
 280   0.0000       1.797314        48.9074 
 281   0.0000       1.806475        49.1567 
 282   0.0000       1.809555        49.2405 
 283   0.0000       1.814843        49.3844 
 284   0.0000       1.815706        49.4079 
 285   0.0000       1.828309        49.7508 
 286   0.0000       1.834506        49.9195 
 287   0.0000       1.851397        50.3791 
 288   0.0000       1.863455        50.7072 
 289   0.0000       1.879551        51.1452 
 290   0.0000       1.897947        51.6458 
 291   0.0000       1.901853        51.7521 
 292   0.0000       1.914123        52.0859 
 293   0.0000       1.928594        52.4797 
 294   0.0000       1.937783        52.7297 
 295   0.0000       1.942873        52.8683 
 296   0.0000       1.962245        53.3954 
 297   0.0000       1.968400        53.5629 
 298   0.0000       1.979797        53.8730 
 299   0.0000       1.993173        54.2370 
 300   0.0000       1.999449        54.4078 
 301   0.0000       2.020744        54.9872 
 302   0.0000       2.023048        55.0499 
 303   0.0000       2.053813        55.8871 
 304   0.0000       2.057419        55.9852 
 305   0.0000       2.064812        56.1864 
 306   0.0000       2.071105        56.3576 
 307   0.0000       2.092505        56.9400 
 308   0.0000       2.102356        57.2080 
 309   0.0000       2.111828        57.4658 
 310   0.0000       2.114531        57.5393 
 311   0.0000       2.125858        57.8475 
 312   0.0000       2.168789        59.0157 
 313   0.0000       2.172690        59.1219 
 314   0.0000       2.177438        59.2511 
 315   0.0000       2.179552        59.3086 
 316   0.0000       2.183817        59.4247 
 317   0.0000       2.191991        59.6471 
 318   0.0000       2.204308        59.9823 
 319   0.0000       2.218309        60.3632 
 320   0.0000       2.228148        60.6310 
 321   0.0000       2.253510        61.3211 
 322   0.0000       2.259087        61.4729 
 323   0.0000       2.261624        61.5419 
 324   0.0000       2.264836        61.6293 
 325   0.0000       2.272608        61.8408 
 326   0.0000       2.276243        61.9397 
 327   0.0000       2.312821        62.9351 
 328   0.0000       2.313085        62.9423 
 329   0.0000       2.316566        63.0370 
 330   0.0000       2.320066        63.1322 
 331   0.0000       2.330859        63.4259 
 332   0.0000       2.349137        63.9233 
 333   0.0000       2.350813        63.9689 
 334   0.0000       2.364667        64.3459 
 335   0.0000       2.387227        64.9598 
 336   0.0000       2.395991        65.1982 
 337   0.0000       2.411239        65.6131 
 338   0.0000       2.430908        66.1484 
 339   0.0000       2.453300        66.7577 
 340   0.0000       2.465188        67.0812 
 341   0.0000       2.506742        68.2119 
 342   0.0000       2.511793        68.3494 
 343   0.0000       2.524068        68.6834 
 344   0.0000       2.539764        69.1105 
 345   0.0000       2.550036        69.3900 
 346   0.0000       2.591633        70.5219 
 347   0.0000       2.602254        70.8109 
 348   0.0000       2.605921        70.9107 
 349   0.0000       2.615609        71.1743 
 350   0.0000       2.618454        71.2518 
 351   0.0000       2.639326        71.8197 
 352   0.0000       2.668488        72.6133 
 353   0.0000       2.670242        72.6610 
 354   0.0000       2.679252        72.9062 
 355   0.0000       2.683036        73.0091 
 356   0.0000       2.697395        73.3999 
 357   0.0000       2.697907        73.4138 
 358   0.0000       2.707857        73.6845 
 359   0.0000       2.718362        73.9704 
 360   0.0000       2.724410        74.1350 
 361   0.0000       2.726873        74.2020 
 362   0.0000       2.736616        74.4671 
 363   0.0000       2.756061        74.9962 
 364   0.0000       2.783573        75.7449 
 365   0.0000       2.795701        76.0749 
 366   0.0000       2.811299        76.4993 
 367   0.0000       2.843099        77.3647 
 368   0.0000       2.852113        77.6099 
 369   0.0000       2.858122        77.7735 
 370   0.0000       2.863027        77.9069 
 371   0.0000       2.873580        78.1941 
 372   0.0000       2.889156        78.6179 
 373   0.0000       2.909077        79.1600 
 374   0.0000       2.918660        79.4208 
 375   0.0000       2.951429        80.3125 
 376   0.0000       2.974797        80.9484 
 377   0.0000       2.991520        81.4034 
 378   0.0000       3.014606        82.0316 
 379   0.0000       3.046905        82.9105 
 380   0.0000       3.068843        83.5075 
 381   0.0000       3.087168        84.0061 
 382   0.0000       3.116648        84.8083 
 383   0.0000       3.137760        85.3828 
 384   0.0000       3.151433        85.7548 
 385   0.0000       3.177794        86.4722 
 386   0.0000       3.214347        87.4668 
 387   0.0000       3.238488        88.1237 
 388   0.0000       3.289486        89.5115 
 389   0.0000       3.292860        89.6033 
 390   0.0000       3.342410        90.9516 
 391   0.0000       3.395598        92.3989 
 392   0.0000       3.460627        94.1684 
 393   0.0000       3.507425        95.4419 
 394   0.0000       3.610121        98.2364 
 395   0.0000       3.632950        98.8576 
 396   0.0000       3.697423       100.6120 
 397   0.0000       3.768597       102.5487 
 398   0.0000       3.859025       105.0094 
 399   0.0000       3.882618       105.6514 
 400   0.0000       3.922036       106.7240 

                    ********************************
                    * MULLIKEN POPULATION ANALYSIS *
                    ********************************

-----------------------
MULLIKEN ATOMIC CHARGES
-----------------------
   0 C :    0.195364
   1 C :   -0.091495
   2 C :   -0.095463
   3 C :    0.147231
   4 C :   -0.087526
   5 C :   -0.128739
   6 C :    0.179687
   7 C :    0.235273
   8 C :   -0.115585
   9 C :   -0.078358
  10 C :    0.129223
  11 C :   -0.078968
  12 C :   -0.149178
  13 C :    0.212353
  14 C :    0.148774
  15 C :    0.160698
  16 C :   -0.020976
  17 C :   -0.070244
  18 C :    0.035716
  19 C :    0.076484
  20 O :   -0.184563
  21 N :    0.295776
  22 O :   -0.312016
  23 O :   -0.317593
  24 H :   -0.026317
  25 H :   -0.033718
  26 H :   -0.034220
  27 H :   -0.034300
  28 H :   -0.047246
  29 H :   -0.034315
  30 H :   -0.031207
  31 H :   -0.026883
  32 H :    0.004420
  33 H :   -0.016069
  34 H :    0.003589
  35 H :   -0.000224
  36 H :    0.190612
Sum of atomic charges:   -0.0000000

--------------------------------
MULLIKEN REDUCED ORBITAL CHARGES
--------------------------------
  0 C s       :     3.086936  s :     3.086936
      pz      :     1.024177  p :     2.667474
      px      :     0.770245
      py      :     0.873051
      dz2     :     0.003393  d :     0.050226
      dxz     :     0.006865
      dyz     :     0.007391
      dx2y2   :     0.016395
      dxy     :     0.016181
  1 C s       :     3.262193  s :     3.262193
      pz      :     0.947322  p :     2.787968
      px      :     1.015259
      py      :     0.825386
      dz2     :     0.002767  d :     0.041334
      dxz     :     0.008608
      dyz     :     0.002819
      dx2y2   :     0.014616
      dxy     :     0.012525
  2 C s       :     3.275834  s :     3.275834
      pz      :     0.994026  p :     2.778826
      px      :     0.821652
      py      :     0.963148
      dz2     :     0.002754  d :     0.040803
      dxz     :     0.004292
      dyz     :     0.005908
      dx2y2   :     0.013762
      dxy     :     0.014086
  3 C s       :     3.116114  s :     3.116114
      pz      :     0.941434  p :     2.681645
      px      :     0.909668
      py      :     0.830543
      dz2     :     0.003539  d :     0.055010
      dxz     :     0.008125
      dyz     :     0.008947
      dx2y2   :     0.017200
      dxy     :     0.017199
  4 C s       :     3.267853  s :     3.267853
[...]
     87      -0.003816  -0.000290   0.000303
     88      -0.002433  -0.000164   0.000124
     89       0.000041   0.000001   0.000003
     90      -0.112856  -0.002101   0.000222
     91      -0.065141  -0.001263   0.000114
     92       0.000652   0.000015   0.000000
     93      -0.686575  -0.019865  -0.000018
     94       0.395414   0.011654  -0.000033
     95      -0.056841  -0.001660   0.000002
     96      -0.501280  -0.031224  -0.000007
     97      -0.291713  -0.021402   0.000029
     98       0.006185   0.000672  -0.000001
     99       0.029308   0.000415  -0.001433
    100       0.017389   0.000258  -0.001482
    101      -0.000370  -0.000006   0.000044
    102       0.028209  -0.730759   0.000094
    103       0.022892  -0.669287   0.000094
    104      -0.000946   0.031593  -0.000004
    105       0.001327  -0.000068  -0.002998
    106       0.001094  -0.000054  -0.010471
    107      -0.000045   0.000003   0.000759
    108       0.000040  -0.000036  -0.107828
    109      -0.000141  -0.000144  -0.988911
    110       0.000013   0.000011   0.079665


-----------
IR SPECTRUM
-----------

 Mode   freq       eps      Int      T**2         TX        TY        TZ
       cm**-1   L/(mol*cm) km/mol    a.u.
----------------------------------------------------------------------------
  7:     20.42   0.000001    0.01  0.000022  ( 0.000724 -0.000990 -0.004472)
  8:     28.26   0.000171    0.87  0.001892  ( 0.001110 -0.003243 -0.043365)
  9:     65.87   0.000024    0.12  0.000112  ( 0.001071  0.001469 -0.010413)
 10:     67.23   0.000236    1.19  0.001097  (-0.007477 -0.032229  0.001570)
 11:    100.90   0.000384    1.94  0.001188  ( 0.001228 -0.003027 -0.034312)
 12:    120.34   0.000489    2.47  0.001269  ( 0.000817  0.003173  0.035475)
 13:    122.17   0.000298    1.51  0.000761  ( 0.025032  0.011367 -0.002242)
 14:    162.11   0.000037    0.19  0.000071  (-0.000449  0.001359  0.008294)
 15:    206.03   0.000113    0.57  0.000171  ( 0.000207  0.001374  0.013004)
 16:    216.09   0.000004    0.02  0.000006  ( 0.002246 -0.000855  0.000471)
 17:    221.46   0.001361    6.88  0.001917  ( 0.001809 -0.003484 -0.043611)
 18:    252.71   0.000129    0.65  0.000159  ( 0.011757  0.004584 -0.000165)
 19:    262.59   0.000018    0.09  0.000021  ( 0.000331 -0.000675 -0.004541)
 20:    300.57   0.003228   16.31  0.003352  ( 0.002158 -0.005576 -0.057584)
 21:    309.07   0.000656    3.31  0.000662  (-0.016895  0.019364 -0.001357)
 22:    341.06   0.015426   77.96  0.014114  (-0.003956  0.010531  0.118270)
 23:    353.77   0.000668    3.38  0.000589  ( 0.015112 -0.018961  0.001150)
 24:    392.30   0.002239   11.31  0.001781  ( 0.001675 -0.003946 -0.041984)
 25:    422.83   0.001679    8.49  0.001239  ( 0.019718 -0.029007  0.003030)
 26:    451.66   0.000059    0.30  0.000041  ( 0.001906 -0.002144 -0.005697)
 27:    453.96   0.001818    9.19  0.001250  (-0.026005  0.023735 -0.003235)
 28:    503.73   0.000678    3.43  0.000420  (-0.008507  0.018572 -0.001695)
 29:    523.18   0.000143    0.72  0.000085  (-0.005294 -0.007566  0.000401)
 30:    525.78   0.000008    0.04  0.000005  ( 0.000163 -0.000002  0.002164)
 31:    532.11   0.001646    8.32  0.000965  ( 0.008685 -0.029715  0.002622)
 32:    561.01   0.000466    2.36  0.000259  (-0.000688  0.001286  0.016034)
 33:    570.13   0.000396    2.00  0.000217  ( 0.000827 -0.001537 -0.014613)
 34:    579.58   0.001066    5.39  0.000574  ( 0.007949 -0.022471  0.002412)
 35:    605.00   0.003120   15.77  0.001609  (-0.021078  0.033973 -0.003276)
 36:    634.24   0.001643    8.30  0.000808  (-0.014017  0.024616 -0.002450)
 37:    667.57   0.000067    0.34  0.000031  ( 0.000231 -0.000542 -0.005570)
 38:    701.89   0.000090    0.46  0.000040  (-0.005810  0.002480 -0.000358)
 39:    719.13   0.001107    5.60  0.000481  (-0.000606  0.001383  0.021869)
 40:    737.08   0.000424    2.14  0.000180  (-0.011169 -0.007403  0.000070)
 41:    741.34   0.000086    0.44  0.000036  ( 0.000347 -0.000580 -0.005981)
 42:    761.88   0.002848   14.39  0.001166  (-0.001397  0.002795  0.034009)
 43:    774.98   0.001799    9.09  0.000725  ( 0.020701 -0.017066  0.002180)
 44:    802.23   0.009949   50.28  0.003870  (-0.046887  0.040591 -0.004908)
 45:    818.31   0.000014    0.07  0.000005  ( 0.000412 -0.000770 -0.002108)
 46:    819.99   0.005302   26.79  0.002018  ( 0.009716 -0.043700  0.003674)
 47:    840.01   0.004150   20.97  0.001542  ( 0.001508 -0.003125 -0.039113)
 48:    854.33   0.000809    4.09  0.000295  (-0.000724  0.001805  0.017079)
 49:    864.04   0.001686    8.52  0.000609  ( 0.010458 -0.022248  0.002152)
 50:    876.51   0.004902   24.77  0.001745  ( 0.001440 -0.002689 -0.041665)
 51:    884.37   0.004921   24.87  0.001737  (-0.001611  0.003479  0.041495)
 52:    894.65   0.001641    8.29  0.000572  (-0.001151  0.002157  0.023796)
 53:    945.33   0.000132    0.67  0.000044  (-0.000115  0.000378  0.006594)
 54:    948.03   0.006718   33.95  0.002211  (-0.001299  0.003131  0.046903)
 55:    986.84   0.014264   72.08  0.004511  (-0.033869  0.057720 -0.005639)
 56:    991.89   0.000167    0.84  0.000052  (-0.000531  0.001004  0.007155)
 57:    995.54   0.000764    3.86  0.000239  (-0.000538  0.001170  0.015418)
 58:   1000.00   0.001330    6.72  0.000415  ( 0.012503 -0.015976  0.001839)
 59:   1010.14   0.025433  128.53  0.007857  ( 0.048807 -0.073624  0.007382)
 60:   1012.30   0.001580    7.98  0.000487  (-0.000278  0.000928  0.022045)
 61:   1015.93   0.000661    3.34  0.000203  (-0.000441  0.001100  0.014197)
 62:   1020.01   0.000196    0.99  0.000060  (-0.000087  0.000304  0.007735)
 63:   1115.69   0.002049   10.35  0.000573  ( 0.007115 -0.022771  0.001978)
 64:   1131.88   0.000174    0.88  0.000048  (-0.006738  0.001532 -0.000331)
 65:   1168.46   0.002646   13.37  0.000707  (-0.003307  0.026282 -0.002237)
 66:   1183.96   0.000274    1.38  0.000072  (-0.001187  0.008374 -0.000752)
 67:   1195.72   0.000024    0.12  0.000006  ( 0.002210  0.001190  0.000014)
 68:   1204.34   0.002389   12.07  0.000619  ( 0.024425 -0.004597  0.001174)
 69:   1208.11   0.022475  113.58  0.005806  ( 0.064538 -0.040120  0.005542)
 70:   1231.40   0.048487  245.03  0.012288  ( 0.060584 -0.092360  0.009313)
 71:   1237.66   0.094846  479.31  0.023914  ( 0.095998 -0.120554  0.012868)
 72:   1264.29   0.032654  165.02  0.008060  (-0.044642  0.077499 -0.007803)
 73:   1268.69   0.000421    2.13  0.000104  ( 0.006374  0.007917 -0.000516)
 74:   1278.84   0.025301  127.86  0.006174  ( 0.041215 -0.066545  0.006863)
 75:   1285.12   0.023805  120.30  0.005781  ( 0.047328 -0.059149  0.006487)
 76:   1320.57   0.001390    7.02  0.000328  (-0.010819  0.014441 -0.001688)
 77:   1333.61   0.007466   37.73  0.001747  (-0.023105  0.034667 -0.003388)
 78:   1351.36   0.000988    4.99  0.000228  (-0.010386 -0.010955  0.000539)
 79:   1371.21   0.000282    1.43  0.000064  ( 0.002397  0.007623 -0.000576)
 80:   1382.03   0.015153   76.58  0.003422  ( 0.047822 -0.033401  0.004373)
 81:   1399.84   0.218810  1105.77  0.048779  ( 0.145045 -0.165500  0.018729)
 82:   1407.20   0.000091    0.46  0.000020  (-0.004428 -0.000775 -0.000215)
 83:   1414.47   0.007640   38.61  0.001686  ( 0.029320 -0.028523  0.003531)
 84:   1426.82   0.002322   11.74  0.000508  (-0.001336  0.022423 -0.001821)
 85:   1444.08   0.000041    0.21  0.000009  (-0.002161 -0.002043  0.000062)
 86:   1469.53   0.003180   16.07  0.000675  ( 0.021370 -0.014661  0.001906)
 87:   1506.32   0.000611    3.09  0.000127  (-0.004200 -0.010419  0.000640)
 88:   1537.16   0.000655    3.31  0.000133  (-0.011461 -0.001224 -0.000314)
 89:   1548.39   0.004517   22.83  0.000910  (-0.008102  0.028953 -0.002549)
 90:   1574.60   0.004292   21.69  0.000851  (-0.020602  0.020506 -0.002393)
 91:   1621.79   0.001785    9.02  0.000344  (-0.003104  0.018207 -0.001547)
 92:   1629.47   0.051515  260.34  0.009866  ( 0.089199 -0.043238  0.006315)
 93:   1645.69   0.028156  142.29  0.005339  (-0.011554  0.071870 -0.006342)
 94:   1660.11   0.003997   20.20  0.000751  (-0.020187 -0.018523  0.000798)
 95:   1669.26   0.036507  184.49  0.006825  (-0.016439  0.080650 -0.007081)
 96:   1694.97   0.043352  219.08  0.007982  ( 0.013163 -0.088009  0.007924)
 97:   1733.48   0.083055  419.73  0.014952  (-0.060998  0.105464 -0.010406)
 98:   3154.84   0.002084   10.53  0.000206  (-0.014224 -0.001936 -0.000312)
 99:   3172.26   0.000186    0.94  0.000018  (-0.002602  0.003380 -0.000357)
100:   3175.60   0.002325   11.75  0.000228  (-0.015100  0.000338 -0.000608)
101:   3175.84   0.000182    0.92  0.000018  ( 0.004173  0.000707  0.000123)
102:   3179.06   0.002139   10.81  0.000210  ( 0.014446 -0.000946  0.000658)
103:   3194.23   0.004772   24.12  0.000466  (-0.006339 -0.020599  0.001306)
104:   3199.02   0.001973    9.97  0.000193  ( 0.005591  0.012678 -0.000721)
105:   3200.77   0.001452    7.34  0.000142  ( 0.004835 -0.010823  0.001010)
106:   3206.41   0.000903    4.56  0.000088  (-0.008880 -0.002997 -0.000064)
107:   3224.10   0.002939   14.85  0.000284  (-0.016029  0.005154 -0.000988)
108:   3224.54   0.000263    1.33  0.000025  ( 0.004433 -0.002378  0.000359)
109:   3253.82   0.003110   15.72  0.000298  ( 0.008750 -0.014806  0.001576)
110:   3849.06   0.066082  333.95  0.005358  ( 0.022931 -0.069211  0.006448)

* The epsilon (eps) is given for a Dirac delta lineshape.
** The dipole moment derivative (T) already includes vibrational overlap.

The first frequency considered to be a vibration is 7
The total number of vibrations considered is 104


--------------------------
THERMOCHEMISTRY AT 298.15K
--------------------------

Temperature         ... 298.15 K
Pressure            ... 1.00 atm
Total Mass          ... 315.33 AMU

Throughout the following assumptions are being made:
  (1) The electronic state is orbitally nondegenerate
  (2) There are no thermally accessible electronically excited states
  (3) Hindered rotations indicated by low frequency modes are not
      treated as such but are treated as vibrations and this may
      cause some error
  (4) All equations used are the standard statistical mechanics
      equations for an ideal gas
  (5) All vibrations are strictly harmonic

freq.      20.42  E(vib)   ...       0.56 
freq.      28.26  E(vib)   ...       0.55 
freq.      65.87  E(vib)   ...       0.50 
freq.      67.23  E(vib)   ...       0.50 
freq.     100.90  E(vib)   ...       0.46 
freq.     120.34  E(vib)   ...       0.44 
freq.     122.17  E(vib)   ...       0.43 
freq.     162.11  E(vib)   ...       0.39 
freq.     206.03  E(vib)   ...       0.35 
freq.     216.09  E(vib)   ...       0.34 
freq.     221.46  E(vib)   ...       0.33 
freq.     252.71  E(vib)   ...       0.30 
freq.     262.59  E(vib)   ...       0.29 
freq.     300.57  E(vib)   ...       0.26 
freq.     309.07  E(vib)   ...       0.26 
freq.     341.06  E(vib)   ...       0.23 
freq.     353.77  E(vib)   ...       0.22 
freq.     392.30  E(vib)   ...       0.20 
freq.     422.83  E(vib)   ...       0.18 
freq.     451.66  E(vib)   ...       0.16 
freq.     453.96  E(vib)   ...       0.16 
freq.     503.73  E(vib)   ...       0.14 
freq.     523.18  E(vib)   ...       0.13 
freq.     525.78  E(vib)   ...       0.13 
freq.     532.11  E(vib)   ...       0.13 
freq.     561.01  E(vib)   ...       0.11 
freq.     570.13  E(vib)   ...       0.11 
freq.     579.58  E(vib)   ...       0.11 
freq.     605.00  E(vib)   ...       0.10 
freq.     634.24  E(vib)   ...       0.09 
freq.     667.57  E(vib)   ...       0.08 
freq.     701.89  E(vib)   ...       0.07 
freq.     719.13  E(vib)   ...       0.07 
freq.     737.08  E(vib)   ...       0.06 
freq.     741.34  E(vib)   ...       0.06 
freq.     761.88  E(vib)   ...       0.06 
freq.     774.98  E(vib)   ...       0.05 
freq.     802.23  E(vib)   ...       0.05 
freq.     818.31  E(vib)   ...       0.05 
freq.     819.99  E(vib)   ...       0.05 
freq.     840.01  E(vib)   ...       0.04 
freq.     854.33  E(vib)   ...       0.04 
freq.     864.04  E(vib)   ...       0.04 
freq.     876.51  E(vib)   ...       0.04 
freq.     884.37  E(vib)   ...       0.04 
freq.     894.65  E(vib)   ...       0.03 
freq.     945.33  E(vib)   ...       0.03 
freq.     948.03  E(vib)   ...       0.03 
freq.     986.84  E(vib)   ...       0.02 
freq.     991.89  E(vib)   ...       0.02 
freq.     995.54  E(vib)   ...       0.02 
freq.    1000.00  E(vib)   ...       0.02 
freq.    1010.14  E(vib)   ...       0.02 
freq.    1012.30  E(vib)   ...       0.02 
freq.    1015.93  E(vib)   ...       0.02 
freq.    1020.01  E(vib)   ...       0.02 
freq.    1115.69  E(vib)   ...       0.01 
freq.    1131.88  E(vib)   ...       0.01 
freq.    1168.46  E(vib)   ...       0.01 
freq.    1183.96  E(vib)   ...       0.01 
freq.    1195.72  E(vib)   ...       0.01 
freq.    1204.34  E(vib)   ...       0.01 
freq.    1208.11  E(vib)   ...       0.01 
freq.    1231.40  E(vib)   ...       0.01 
freq.    1237.66  E(vib)   ...       0.01 
freq.    1264.29  E(vib)   ...       0.01 
freq.    1268.69  E(vib)   ...       0.01 
freq.    1278.84  E(vib)   ...       0.01 
freq.    1285.12  E(vib)   ...       0.01 
freq.    1320.57  E(vib)   ...       0.01 
freq.    1333.61  E(vib)   ...       0.01 
freq.    1351.36  E(vib)   ...       0.01 
freq.    1371.21  E(vib)   ...       0.01 
freq.    1382.03  E(vib)   ...       0.01 
freq.    1399.84  E(vib)   ...       0.00 
freq.    1407.20  E(vib)   ...       0.00 
freq.    1414.47  E(vib)   ...       0.00 
freq.    1426.82  E(vib)   ...       0.00 
freq.    1444.08  E(vib)   ...       0.00 
freq.    1469.53  E(vib)   ...       0.00 
freq.    1506.32  E(vib)   ...       0.00 
freq.    1537.16  E(vib)   ...       0.00 
freq.    1548.39  E(vib)   ...       0.00 
freq.    1574.60  E(vib)   ...       0.00 
freq.    1621.79  E(vib)   ...       0.00 
freq.    1629.47  E(vib)   ...       0.00 
freq.    1645.69  E(vib)   ...       0.00 
freq.    1660.11  E(vib)   ...       0.00 
freq.    1669.26  E(vib)   ...       0.00 
freq.    1694.97  E(vib)   ...       0.00 
freq.    1733.48  E(vib)   ...       0.00 
freq.    3154.84  E(vib)   ...       0.00 
freq.    3172.26  E(vib)   ...       0.00 
freq.    3175.60  E(vib)   ...       0.00 
freq.    3175.84  E(vib)   ...       0.00 
freq.    3179.06  E(vib)   ...       0.00 
freq.    3194.23  E(vib)   ...       0.00 
freq.    3199.02  E(vib)   ...       0.00 
freq.    3200.77  E(vib)   ...       0.00 
freq.    3206.41  E(vib)   ...       0.00 
freq.    3224.10  E(vib)   ...       0.00 
freq.    3224.54  E(vib)   ...       0.00 
freq.    3253.82  E(vib)   ...       0.00 
freq.    3849.06  E(vib)   ...       0.00 

------------
INNER ENERGY
------------

The inner energy is: U= E(el) + E(ZPE) + E(vib) + E(rot) + E(trans)
    E(el)   - is the total energy from the electronic structure calculation
              = E(kin-el) + E(nuc-el) + E(el-el) + E(nuc-nuc)
    E(ZPE)  - the the zero temperature vibrational energy from the frequency calculation
    E(vib)  - the the finite temperature correction to E(ZPE) due to population
              of excited vibrational states
    E(rot)  - is the rotational thermal energy
    E(trans)- is the translational thermal energy

Summary of contributions to the inner energy U:
Electronic energy                ...  -1048.92568679 Eh
Zero point energy                ...      0.28184616 Eh     176.86 kcal/mol
Thermal vibrational correction   ...      0.01506023 Eh       9.45 kcal/mol
Thermal rotational correction    ...      0.00141627 Eh       0.89 kcal/mol
Thermal translational correction ...      0.00141627 Eh       0.89 kcal/mol
-----------------------------------------------------------------------
Total thermal energy                  -1048.62594786 Eh


Summary of corrections to the electronic energy:
(perhaps to be used in another calculation)
Total thermal correction                  0.01789278 Eh      11.23 kcal/mol
Non-thermal (ZPE) correction              0.28184616 Eh     176.86 kcal/mol
-----------------------------------------------------------------------
Total correction                          0.29973893 Eh     188.09 kcal/mol


--------
ENTHALPY
--------

The enthalpy is H = U + kB*T
                kB is Boltzmann's constant
Total free energy                 ...  -1048.62594786 Eh 
Thermal Enthalpy correction       ...      0.00094421 Eh       0.59 kcal/mol
-----------------------------------------------------------------------
Total Enthalpy                    ...  -1048.62500365 Eh


Note: Only C1 symmetry has been detected, increase convergence thresholds 
      if your molecule has a higher symmetry. Symmetry factor of 1.0 is   
      used for the rotational entropy correction. 
 

Note: Rotational entropy computed according to Herzberg 
Infrared and Raman Spectra, Chapter V,1, Van Nostrand Reinhold, 1945 
Point Group:  C1, Symmetry Number:   1  
Rotational constants in cm-1:     0.024978     0.003301     0.002916 

Vibrational entropy computed according to the QRRHO of S. Grimme
Chem.Eur.J. 2012 18 9955


-------
ENTROPY
-------

The entropy contributions are T*S = T*(S(el)+S(vib)+S(rot)+S(trans))
     S(el)   - electronic entropy
     S(vib)  - vibrational entropy
     S(rot)  - rotational entropy
     S(trans)- translational entropy
The entropies will be listed as multiplied by the temperature to get
units of energy

Electronic entropy                ...      0.00000000 Eh      0.00 kcal/mol
Vibrational entropy               ...      0.02612941 Eh     16.40 kcal/mol
Rotational entropy                ...      0.01670589 Eh     10.48 kcal/mol
Translational entropy             ...      0.02049775 Eh     12.86 kcal/mol
-----------------------------------------------------------------------
Final entropy term                ...      0.06333305 Eh     39.74 kcal/mol

In case the symmetry of your molecule has not been determined correctly
or in case you have a reason to use a different symmetry number we print 
out the resulting rotational entropy values for sn=1,12 :
 --------------------------------------------------------
|  sn= 1 | S(rot)=       0.01670589 Eh     10.48 kcal/mol|
|  sn= 2 | S(rot)=       0.01605143 Eh     10.07 kcal/mol|
|  sn= 3 | S(rot)=       0.01566860 Eh      9.83 kcal/mol|
|  sn= 4 | S(rot)=       0.01539698 Eh      9.66 kcal/mol|
|  sn= 5 | S(rot)=       0.01518629 Eh      9.53 kcal/mol|
|  sn= 6 | S(rot)=       0.01501414 Eh      9.42 kcal/mol|
|  sn= 7 | S(rot)=       0.01486860 Eh      9.33 kcal/mol|
|  sn= 8 | S(rot)=       0.01474252 Eh      9.25 kcal/mol|
|  sn= 9 | S(rot)=       0.01463131 Eh      9.18 kcal/mol|
|  sn=10 | S(rot)=       0.01453183 Eh      9.12 kcal/mol|
|  sn=11 | S(rot)=       0.01444184 Eh      9.06 kcal/mol|
|  sn=12 | S(rot)=       0.01435969 Eh      9.01 kcal/mol|
 --------------------------------------------------------


-------------------
GIBBS FREE ENERGY
-------------------

The Gibbs free energy is G = H - T*S

Total enthalpy                    ...  -1048.62500365 Eh 
Total entropy correction          ...     -0.06333305 Eh    -39.74 kcal/mol
-----------------------------------------------------------------------
Final Gibbs free energy         ...  -1048.68833670 Eh

For completeness - the Gibbs free energy minus the electronic energy
G-E(el)                           ...      0.23735009 Eh    148.94 kcal/mol


Timings for individual modules:

Sum of individual times         ...     1786.180 sec (=  29.770 min)
GTO integral calculation        ...       66.922 sec (=   1.115 min)   3.7 %
SCF iterations                  ...      826.526 sec (=  13.775 min)  46.3 %
SCF Gradient evaluation         ...      197.863 sec (=   3.298 min)  11.1 %
Geometry relaxation             ...        4.114 sec (=   0.069 min)   0.2 %
Analytical frequency calculation...      690.755 sec (=  11.513 min)  38.7 %
                             ****ORCA TERMINATED NORMALLY****
TOTAL RUN TIME: 0 days 0 hours 30 minutes 4 seconds 945 msec
