 Entering Gaussian System, Link 0=g16
 Initial command:
 /opt/bwhpc/common/chem/gaussian/g16.C.01/x86_64-Intel-avx2-source/g16/l1.exe "/scratch/ka_pr7831.18368309/Gau-122526.inp" -scrdir="/scratch/ka_pr7831.18368309/"
 Entering Link 1 = /opt/bwhpc/common/chem/gaussian/g16.C.01/x86_64-Intel-avx2-source/g16/l1.exe PID=    122528.
  
 Copyright (c) 1988-2019, Gaussian, Inc.  All Rights Reserved.
  
 This is part of the Gaussian(R) 16 program.  It is based on
 the Gaussian(R) 09 system (copyright 2009, Gaussian, Inc.),
 the Gaussian(R) 03 system (copyright 2003, Gaussian, Inc.),
 the Gaussian(R) 98 system (copyright 1998, Gaussian, Inc.),
 the Gaussian(R) 94 system (copyright 1995, Gaussian, Inc.),
 the Gaussian 92(TM) system (copyright 1992, Gaussian, Inc.),
 the Gaussian 90(TM) system (copyright 1990, Gaussian, Inc.),
 the Gaussian 88(TM) system (copyright 1988, Gaussian, Inc.),
 the Gaussian 86(TM) system (copyright 1986, Carnegie Mellon
 University), and the Gaussian 82(TM) system (copyright 1983,
 Carnegie Mellon University). Gaussian is a federally registered
 trademark of Gaussian, Inc.
  
 This software contains proprietary and confidential information,
 including trade secrets, belonging to Gaussian, Inc.
  
 This software is provided under written license and may be
 used, copied, transmitted, or stored only in accord with that
 written license.
  
 The following legend is applicable only to US Government
 contracts under FAR:
  
                    RESTRICTED RIGHTS LEGEND
  
 Use, reproduction and disclosure by the US Government is
 subject to restrictions as set forth in subparagraphs (a)
 and (c) of the Commercial Computer Software - Restricted
 Rights clause in FAR 52.227-19.
  
 Gaussian, Inc.
 340 Quinnipiac St., Bldg. 40, Wallingford CT 06492
  
  
 ---------------------------------------------------------------
 Warning -- This program may not be used in any manner that
 competes with the business of Gaussian, Inc. or will provide
 assistance to any competitor of Gaussian, Inc.  The licensee
 of this program is prohibited from giving any competitor of
 Gaussian, Inc. access to this program.  By using this program,
 the user acknowledges that Gaussian, Inc. is engaged in the
 business of creating and licensing software in the field of
 computational chemistry and represents and warrants to the
 licensee that it is not a competitor of Gaussian, Inc. and that
 it will not use this program in any manner prohibited above.
 ---------------------------------------------------------------
  

 Cite this work as:
 Gaussian 16, Revision C.01,
 M. J. Frisch, G. W. Trucks, H. B. Schlegel, G. E. Scuseria, 
 M. A. Robb, J. R. Cheeseman, G. Scalmani, V. Barone, 
 G. A. Petersson, H. Nakatsuji, X. Li, M. Caricato, A. V. Marenich, 
 J. Bloino, B. G. Janesko, R. Gomperts, B. Mennucci, H. P. Hratchian, 
 J. V. Ortiz, A. F. Izmaylov, J. L. Sonnenberg, D. Williams-Young, 
 F. Ding, F. Lipparini, F. Egidi, J. Goings, B. Peng, A. Petrone, 
 T. Henderson, D. Ranasinghe, V. G. Zakrzewski, J. Gao, N. Rega, 
 G. Zheng, W. Liang, M. Hada, M. Ehara, K. Toyota, R. Fukuda, 
 J. Hasegawa, M. Ishida, T. Nakajima, Y. Honda, O. Kitao, H. Nakai, 
 T. Vreven, K. Throssell, J. A. Montgomery, Jr., J. E. Peralta, 
 F. Ogliaro, M. J. Bearpark, J. J. Heyd, E. N. Brothers, K. N. Kudin, 
 V. N. Staroverov, T. A. Keith, R. Kobayashi, J. Normand, 
 K. Raghavachari, A. P. Rendell, J. C. Burant, S. S. Iyengar, 
 J. Tomasi, M. Cossi, J. M. Millam, M. Klene, C. Adamo, R. Cammi, 
 J. W. Ochterski, R. L. Martin, K. Morokuma, O. Farkas, 
 J. B. Foresman, and D. J. Fox, Gaussian, Inc., Wallingford CT, 2019.
 
 ******************************************
 Gaussian 16:  ES64L-G16RevC.01  3-Jul-2019
                15-Aug-2025 
 ******************************************
 %chk=mp2.chk
 %mem=10GB
 %nprocs=16
 Will use up to   16 processors via shared memory.
 --------------------------
 #P mp2/cc-pvdz polar=Cubic
 --------------------------
 1/30=1,38=101,172=1/1,6;
 2/12=2,17=6,18=5,40=1/2;
 3/5=16,11=9,25=1,30=1,71=2,140=1/1,2,3;
 4/69=2/1;
 5/5=2,38=5,98=1/2;
 8/6=4,8=1,10=1,19=10,30=-1/1;
 9/15=5,16=-3/6;
 10/6=2,13=10,21=1,60=-2/2;
 8/6=4,8=1,10=1,19=10,30=-1/11,4;
 10/5=1,13=10,20=4,60=-2/2;
 11/12=2,14=10,16=1,17=2,28=-2,32=3,42=3/12;
 6/7=2,8=2,9=2,10=2,22=-1/1;
 1/38=100/6(1);
 99/9=1/99;
 3/5=16,11=9,14=-3,25=1,30=1,71=2,140=1/1,2,3;
 4/5=5,16=3,69=2/1;
 5/5=2,38=5,98=1/2;
 8/6=4,8=1,10=1,19=10,30=-1/1;
 9/15=5,16=-3/6;
 10/6=2,13=10,21=1,60=-2/2;
 8/6=4,8=1,10=1,19=10,30=-1/11,4;
 10/5=1,13=10,20=4,60=-2/2;
 11/12=2,14=10,16=1,17=2,28=-2,32=3,42=3/12;
 6/7=2,8=2,9=2,10=2,22=-1/1;
 1/38=100/6(-10);
 99/9=1/99;
 Leave Link    1 at Fri Aug 15 18:33:51 2025, MaxMem=  1342177280 cpu:               0.4 elap:               0.0
 (Enter /opt/bwhpc/common/chem/gaussian/g16.C.01/x86_64-Intel-avx2-source/g16/l101.exe)
 -
 p
 -
 Symbolic Z-matrix:
 Charge =  0 Multiplicity = 1
 C                    -7.11415   3.32345  -0.26023 
 C                    -5.84773   3.94913  -0.21908 
 C                    -4.67419   3.22211  -0.14495 
 C                    -4.70008   1.81202  -0.10902 
 C                    -3.49906   1.03855  -0.02188 
 C                    -3.53224  -0.32693   0.01254 
 C                    -4.76886  -1.05546  -0.04613 
 C                    -4.81606  -2.48477  -0.0185 
 C                    -6.08059  -3.11005  -0.06721 
 C                    -7.26045  -2.38276  -0.12177 
 C                    -7.24475  -0.97576  -0.15205 
 C                    -8.44559  -0.20078  -0.22607 
 C                    -8.41777   1.16437  -0.26239 
 C                    -7.17897   1.89314  -0.22589 
 C                    -5.95854   1.13521  -0.15224 
 C                    -5.98752  -0.29941  -0.11873 
 C                    -8.32792   4.12394  -0.33438 
 C                    -3.58976  -3.28284   0.04699 
 C                    -8.41828   5.46665  -0.40183 
 C                    -3.50506  -4.54003   0.52921 
 O                    -2.34589  -5.22684   0.50857 
 C                    -2.33171  -6.47572   1.17386 
 N                    -9.71923   6.11165  -0.46885 
 O                    -9.70318   7.33592  -0.53328 
 O                    -10.73461   5.42626  -0.45819 
 H                    -5.7894    5.03899  -0.24224 
 H                    -3.71111   3.73813  -0.11132 
 H                    -2.54213   1.56555   0.02306 
 H                    -2.59293  -0.87378   0.09589 
 H                    -6.13346  -4.20059  -0.09552 
 H                    -8.22043  -2.90498  -0.16413 
 H                    -9.40411  -0.72664  -0.2543 
 H                    -9.36296   1.70309  -0.32019 
 H                    -9.29456   3.61769  -0.33815 
 H                    -2.65493  -2.84647  -0.31226 
 H                    -7.61077   6.19534  -0.41776 
 H                    -4.36516  -5.06364   0.96716 
 H                    -1.33806  -6.91507   1.01329 
 H                    -2.49991  -6.35913   2.25993 
 H                    -3.09553  -7.162     0.76439 
 
 ITRead=  0  0  0  0  0  0  0  0  0  0  0  0  0  0  0  0  0  0  0  0
 ITRead=  0  0  0  0  0  0  0  0  0  0  0  0  0  0  0  0  0  0  0  0
 MicOpt= -1 -1 -1 -1 -1 -1 -1 -1 -1 -1 -1 -1 -1 -1 -1 -1 -1 -1 -1 -1
 MicOpt= -1 -1 -1 -1 -1 -1 -1 -1 -1 -1 -1 -1 -1 -1 -1 -1 -1 -1 -1 -1
 NAtoms=     40 NQM=       40 NQMF=       0 NMMI=      0 NMMIF=      0
                NMic=       0 NMicF=      0.
                    Isotopes and Nuclear Properties:
 (Nuclear quadrupole moments (NQMom) in fm**2, nuclear magnetic moments (NMagM)
  in nuclear magnetons)

  Atom         1           2           3           4           5           6           7           8           9          10
 IAtWgt=          12          12          12          12          12          12          12          12          12          12
 AtmWgt=  12.0000000  12.0000000  12.0000000  12.0000000  12.0000000  12.0000000  12.0000000  12.0000000  12.0000000  12.0000000
 NucSpn=           0           0           0           0           0           0           0           0           0           0
 AtZEff=  -0.0000000  -0.0000000  -0.0000000  -0.0000000  -0.0000000  -0.0000000  -0.0000000  -0.0000000  -0.0000000  -0.0000000
 NQMom=    0.0000000   0.0000000   0.0000000   0.0000000   0.0000000   0.0000000   0.0000000   0.0000000   0.0000000   0.0000000
 NMagM=    0.0000000   0.0000000   0.0000000   0.0000000   0.0000000   0.0000000   0.0000000   0.0000000   0.0000000   0.0000000
 AtZNuc=   6.0000000   6.0000000   6.0000000   6.0000000   6.0000000   6.0000000   6.0000000   6.0000000   6.0000000   6.0000000

  Atom        11          12          13          14          15          16          17          18          19          20
 IAtWgt=          12          12          12          12          12          12          12          12          12          12
 AtmWgt=  12.0000000  12.0000000  12.0000000  12.0000000  12.0000000  12.0000000  12.0000000  12.0000000  12.0000000  12.0000000
 NucSpn=           0           0           0           0           0           0           0           0           0           0
 AtZEff=  -0.0000000  -0.0000000  -0.0000000  -0.0000000  -0.0000000  -0.0000000  -0.0000000  -0.0000000  -0.0000000  -0.0000000
 NQMom=    0.0000000   0.0000000   0.0000000   0.0000000   0.0000000   0.0000000   0.0000000   0.0000000   0.0000000   0.0000000
 NMagM=    0.0000000   0.0000000   0.0000000   0.0000000   0.0000000   0.0000000   0.0000000   0.0000000   0.0000000   0.0000000
 AtZNuc=   6.0000000   6.0000000   6.0000000   6.0000000   6.0000000   6.0000000   6.0000000   6.0000000   6.0000000   6.0000000

  Atom        21          22          23          24          25          26          27          28          29          30
 IAtWgt=          16          12          14          16          16           1           1           1           1           1
 AtmWgt=  15.9949146  12.0000000  14.0030740  15.9949146  15.9949146   1.0078250   1.0078250   1.0078250   1.0078250   1.0078250
 NucSpn=           0           0           2           0           0           1           1           1           1           1
 AtZEff=  -0.0000000  -0.0000000  -0.0000000  -0.0000000  -0.0000000  -0.0000000  -0.0000000  -0.0000000  -0.0000000  -0.0000000
 NQMom=    0.0000000   0.0000000   2.0440000   0.0000000   0.0000000   0.0000000   0.0000000   0.0000000   0.0000000   0.0000000
 NMagM=    0.0000000   0.0000000   0.4037610   0.0000000   0.0000000   2.7928460   2.7928460   2.7928460   2.7928460   2.7928460
 AtZNuc=   8.0000000   6.0000000   7.0000000   8.0000000   8.0000000   1.0000000   1.0000000   1.0000000   1.0000000   1.0000000

  Atom        31          32          33          34          35          36          37          38          39          40
 IAtWgt=           1           1           1           1           1           1           1           1           1           1
 AtmWgt=   1.0078250   1.0078250   1.0078250   1.0078250   1.0078250   1.0078250   1.0078250   1.0078250   1.0078250   1.0078250
 NucSpn=           1           1           1           1           1           1           1           1           1           1
 AtZEff=  -0.0000000  -0.0000000  -0.0000000  -0.0000000  -0.0000000  -0.0000000  -0.0000000  -0.0000000  -0.0000000  -0.0000000
 NQMom=    0.0000000   0.0000000   0.0000000   0.0000000   0.0000000   0.0000000   0.0000000   0.0000000   0.0000000   0.0000000
 NMagM=    2.7928460   2.7928460   2.7928460   2.7928460   2.7928460   2.7928460   2.7928460   2.7928460   2.7928460   2.7928460
 AtZNuc=   1.0000000   1.0000000   1.0000000   1.0000000   1.0000000   1.0000000   1.0000000   1.0000000   1.0000000   1.0000000
 Leave Link  101 at Fri Aug 15 18:33:51 2025, MaxMem=  1342177280 cpu:               1.5 elap:               0.1
 (Enter /opt/bwhpc/common/chem/gaussian/g16.C.01/x86_64-Intel-avx2-source/g16/l106.exe)
 Differentiate once with respect to electric field.
 Nuclear step= 0.001000 Angstroms, electric field step= 0.000333 atomic units, NStep=1.
 Leave Link  106 at Fri Aug 15 18:33:51 2025, MaxMem=  1342177280 cpu:               0.0 elap:               0.0
 (Enter /opt/bwhpc/common/chem/gaussian/g16.C.01/x86_64-Intel-avx2-source/g16/l202.exe)
                          Input orientation:                          
 ---------------------------------------------------------------------
 Center     Atomic      Atomic             Coordinates (Angstroms)
 Number     Number       Type             X           Y           Z
 ---------------------------------------------------------------------
      1          6           0       -7.114154    3.323450   -0.260230
      2          6           0       -5.847733    3.949132   -0.219080
      3          6           0       -4.674192    3.222112   -0.144951
      4          6           0       -4.700077    1.812020   -0.109015
      5          6           0       -3.499056    1.038548   -0.021883
      6          6           0       -3.532240   -0.326929    0.012544
      7          6           0       -4.768862   -1.055461   -0.046134
      8          6           0       -4.816060   -2.484765   -0.018500
      9          6           0       -6.080594   -3.110050   -0.067210
     10          6           0       -7.260448   -2.382758   -0.121773
     11          6           0       -7.244746   -0.975756   -0.152049
     12          6           0       -8.445594   -0.200778   -0.226068
     13          6           0       -8.417775    1.164372   -0.262385
     14          6           0       -7.178971    1.893144   -0.225886
     15          6           0       -5.958535    1.135212   -0.152245
     16          6           0       -5.987519   -0.299411   -0.118730
     17          6           0       -8.327922    4.123940   -0.334378
     18          6           0       -3.589756   -3.282836    0.046990
     19          6           0       -8.418283    5.466647   -0.401834
     20          6           0       -3.505055   -4.540032    0.529212
     21          8           0       -2.345892   -5.226837    0.508567
     22          6           0       -2.331709   -6.475719    1.173857
     23          7           0       -9.719234    6.111649   -0.468854
     24          8           0       -9.703179    7.335917   -0.533284
     25          8           0      -10.734606    5.426265   -0.458187
     26          1           0       -5.789396    5.038989   -0.242245
     27          1           0       -3.711106    3.738129   -0.111315
     28          1           0       -2.542128    1.565550    0.023058
     29          1           0       -2.592928   -0.873782    0.095893
     30          1           0       -6.133457   -4.200591   -0.095517
     31          1           0       -8.220428   -2.904975   -0.164132
     32          1           0       -9.404108   -0.726637   -0.254301
     33          1           0       -9.362956    1.703094   -0.320191
     34          1           0       -9.294559    3.617689   -0.338150
     35          1           0       -2.654930   -2.846470   -0.312261
     36          1           0       -7.610767    6.195340   -0.417761
     37          1           0       -4.365160   -5.063636    0.967162
     38          1           0       -1.338057   -6.915073    1.013290
     39          1           0       -2.499906   -6.359131    2.259926
     40          1           0       -3.095528   -7.162001    0.764393
 ---------------------------------------------------------------------
                    Distance matrix (angstroms):
                    1          2          3          4          5
     1  C    0.000000
     2  C    1.413150   0.000000
     3  C    2.444786   1.382481   0.000000
     4  C    2.852202   2.428266   1.410787   0.000000
     5  C    4.283284   3.745219   2.482748   1.431189   0.000000
     6  C    5.121502   4.868249   3.731561   2.440025   1.366314
     7  C    4.972032   5.122483   4.279762   2.868996   2.449055
     8  C    6.251003   6.519173   5.710040   4.299303   3.761416
     9  C    6.518852   7.064654   6.486932   5.112177   4.886437
    10  C    5.709762   6.488302   6.172830   4.914451   5.085606
    11  C    4.302550   5.119635   4.922387   3.774770   4.254946
    12  C    3.767504   4.895986   5.093744   4.253699   5.103514
    13  C    2.522113   3.789707   4.273465   3.776804   4.926202
    14  C    1.432187   2.449352   2.836657   2.482973   3.783348
    15  C    2.476995   2.816894   2.450458   1.429565   2.464828
    16  C    3.796638   4.252027   3.758542   2.473003   2.827006
    17  C    1.455855   2.489013   3.768146   4.307786   5.738923
    18  C    7.493916   7.580937   6.597513   5.216772   4.322885
    19  C    2.512786   2.990648   4.372888   5.221790   6.629571
    20  C    8.688105   8.838211   7.878594   6.494919   5.605738
    21  O    9.820121   9.848389   8.788219   7.447758   6.392669
    22  C   10.997823  11.089644  10.063518   8.714445   7.697838
    23  N    3.821520   4.441552   5.822954   6.618779   8.039076
    24  O    4.783043   5.141352   6.508833   7.464883   8.854915
    25  O    4.191502   5.110834   6.456395   7.042743   8.473229
    26  H    2.167575   1.091663   2.134055   3.408474   4.614948
    27  H    3.431453   2.149723   1.093132   2.165170   2.709372
    28  H    4.906515   4.082538   2.705202   2.175990   1.093371
    29  H    6.179407   5.826960   4.600653   3.419882   2.119421
    30  H    7.589473   8.155666   7.564946   6.181121   5.864646
    31  H    6.326639   7.253378   7.079361   5.886082   6.153289
    32  H    4.652648   5.874680   6.162523   5.347317   6.167621
    33  H    2.772411   4.172733   4.931799   4.668930   5.908971
    34  H    2.201548   3.464772   4.641293   4.941883   6.351366
    35  H    7.612838   7.508853   6.397897   5.091705   3.986256
    36  H    2.918765   2.862379   4.187838   5.270762   6.607222
    37  H    8.911043   9.210602   8.365758   6.967423   6.242195
    38  H   11.824234  11.827377  10.734702   9.419389   8.306720
    39  H   11.017933  11.118170  10.114898   8.787510   7.805806
    40  H   11.275810  11.489087  10.542717   9.158082   8.248034
                    6          7          8          9         10
     6  C    0.000000
     7  C    1.436467   0.000000
     8  C    2.511059   1.430350   0.000000
     9  C    3.774418   2.437708   1.411524   0.000000
    10  C    4.259579   2.824082   2.448695   1.387079   0.000000
    11  C    3.772369   2.479430   2.862423   2.432624   1.407415
    12  C    4.920762   3.779050   4.293391   3.752643   2.485254
    13  C    5.115468   4.276563   5.133034   4.875571   3.733806
    14  C    4.276004   3.812507   4.979201   5.124798   4.277945
    15  C    2.837590   2.495121   3.798338   4.247867   3.751269
    16  C    2.458939   1.435969   2.481559   2.812652   2.441453
    17  C    6.552034   6.290961   7.490523   7.579741   6.597107
    18  C    2.956667   2.521936   1.464591   2.499434   3.783200
    19  C    7.590167   7.482158   8.737729   8.895869   7.939280
    20  C    4.244752   3.751061   2.498568   3.005656   4.379565
    21  O    5.065823   4.855806   3.728067   4.331316   5.713053
    22  C    6.371620   6.066901   4.849889   5.188652   6.536318
    23  N    8.942366   8.720800   9.906678   9.921732   8.849918
    24  O    9.853812   9.746796  10.981563  11.066100  10.029402
    25  O    9.230108   8.818881   9.889738   9.730435   8.553583
    26  H    5.826898   6.182417   7.589751   8.156119   7.567089
    27  H    4.070876   4.909338   6.320914   7.246653   7.075535
    28  H    2.135862   3.439888   4.645163   5.864309   6.154076
    29  H    1.090093   2.188120   2.747848   4.146241   4.910207
    30  H    4.667255   3.428760   2.164607   1.092188   2.138999
    31  H    5.353190   3.917644   3.433294   2.151822   1.093648
    32  H    5.891503   4.651556   4.919025   4.094070   2.712117
    33  H    6.182957   5.365672   6.188978   5.831317   4.599358
    34  H    6.991946   6.511954   7.576218   7.460929   6.339542
    35  H    2.687612   2.783387   2.210793   3.444517   4.632722
    36  H    7.704513   7.796708   9.127652   9.436875   8.590349
    37  H    4.903208   4.153939   2.797395   2.798060   4.093359
    38  H    7.015667   6.872252   5.726143   6.175543   7.543538
    39  H    6.519502   6.212486   5.056333   5.365949   6.644305
    40  H    6.890153   6.383324   5.044768   5.101028   6.401017
                   11         12         13         14         15
    11  C    0.000000
    12  C    1.431120   0.000000
    13  C    2.443014   1.365916   0.000000
    14  C    2.870604   2.447211   1.437733   0.000000
    15  C    2.471947   2.824142   2.461878   1.438522   0.000000
    16  C    1.427997   2.462394   2.840677   2.497666   1.435307
    17  C    5.216648   4.327674   2.961807   2.511635   3.818333
    18  C    4.326799   5.757847   6.571388   6.304576   5.016966
    19  C    6.553177   5.670215   4.304534   3.786393   4.987382
    20  C    5.210899   6.618799   7.569786   7.446715   6.220316
    21  O    6.519729   7.937715   8.849275   8.636677   7.345987
    22  C    7.493034   8.872106   9.872891   9.772056   8.534558
    23  N    7.513639   6.444210   5.119763   4.930290   6.245641
    24  O    8.676009   7.647069   6.309803   6.007487   7.253709
    25  O    7.297857   6.079232   4.854871   5.017913   6.427876
    26  H    6.188969   5.874590   4.682034   3.439118   3.908476
    27  H    5.891433   6.159832   5.366542   3.929781   3.439155
    28  H    5.348225   6.167081   5.896240   4.655062   3.447863
    29  H    4.659537   5.900025   6.181527   5.365744   3.927460
    30  H    3.411410   4.621853   5.833419   6.184149   5.338970
    31  H    2.161941   2.714263   4.075314   4.910233   4.630271
    32  H    2.176088   1.093652   2.132800   3.437339   3.917764
    33  H    3.419258   2.115453   1.089464   2.194267   3.455543
    34  H    5.033499   3.913310   2.606388   2.731735   4.162489
    35  H    4.958997   6.367017   7.021376   6.552735   5.176215
    36  H    7.185346   6.453216   5.097651   4.328066   5.329659
    37  H    5.124004   6.459190   7.531505   7.598532   6.497510
    38  H    8.457096   9.855701  10.817910  10.641264   9.354911
    39  H    7.570459   8.913848   9.898804   9.806780   8.599177
    40  H    7.505032   8.835318   9.935244   9.982524   8.825008
                   16         17         18         19         20
    16  C    0.000000
    17  C    5.008995   0.000000
    18  C    3.831129   8.800908   0.000000
    19  C    6.263879   1.347433  10.003477   0.000000
    20  C    4.956341   9.953403   1.349168  11.186611   0.000000
    21  O    6.159096  11.132487   2.353591  12.330991   1.347511
    22  C    7.292633  12.271190   3.612065  13.496269   2.353549
    23  N    7.426303   2.429984  11.229111   1.453614  12.372164
    24  O    8.501542   3.499670  12.266563   2.272093  13.438147
    25  O    7.445363   2.739253  11.276192   2.317360  12.351859
    26  H    5.343503   2.699985   8.612482   2.668222   9.877803
    27  H    4.635066   4.638275   7.023798   5.022916   8.305461
    28  H    3.920319   6.336287   4.960336   7.065995   6.201737
    29  H    3.449523   7.619220   2.607604   8.624588   3.802779
    30  H    3.903977   8.612232   2.707951   9.938297   2.722866
    31  H    3.431750   7.031798   4.650857   8.377333   5.038737
    32  H    3.445865   4.969174   6.358586   6.272988   7.067864
    33  H    3.929910   2.632868   7.637025   3.881160   8.603087
    34  H    5.131115   1.091188   8.961605   2.047085  10.040871
    35  H    4.198941   8.987210   1.092417  10.115936   2.073388
    36  H    6.701205   2.193618  10.306325   1.087810  11.532642
    37  H    5.148694  10.090047   2.149237  11.366126   1.098063
    38  H    8.164921  13.135228   4.381441  14.333149   3.251312
    39  H    7.385232  12.271551   3.943152  13.489298   2.704592
    40  H    7.499243  12.488302   3.975783  13.754073   2.664159
                   21         22         23         24         25
    21  O    0.000000
    22  C    1.415104   0.000000
    23  N   13.560339  14.687268   0.000000
    24  O   14.595818  15.748466   1.226067   0.000000
    25  O   13.593885  14.660473   1.225090   2.171693   0.000000
    26  H   10.853968  12.105761   4.079899   4.547338   4.965050
    27  H    9.089482  10.386390   6.469855   7.001933   7.231851
    28  H    6.812543   8.125922   8.509985   9.213431   9.069367
    29  H    4.379545   5.710687   9.994970  10.878910  10.309438
    30  H    3.970358   4.608775  10.924261  12.084104  10.676069
    31  H    6.352459   7.015514   9.145425  10.354260   8.707303
    32  H    8.405485   9.225530   6.848905   8.072921   6.298412
    33  H    9.896968  10.888691   4.425426   5.647110   3.970198
    34  H   11.279474  12.354932   2.533233   3.745699   2.314971
    35  H    2.536811   3.935030  11.409505  12.385785  11.564627
    36  H   12.611230  13.818735   2.110745   2.385886   3.217372
    37  H    2.077110   2.484275  12.474584  13.582883  12.354736
    38  H    2.029930   1.098252  15.560731  16.596923  15.581046
    39  H    2.091188   1.105182  14.665786  15.723978  14.631951
    40  H    2.090995   1.105469  14.885703  15.985451  14.775474
                   26         27         28         29         30
    26  H    0.000000
    27  H    2.455334   0.000000
    28  H    4.762343   2.470763   0.000000
    29  H    6.729978   4.750050   2.440947   0.000000
    30  H    9.247148   8.300079   6.794121   4.862062   0.000000
    31  H    8.307984   8.029172   7.229365   5.988499   2.457392
    32  H    6.805053   7.236356   7.240015   6.821764   4.773964
    33  H    4.889234   6.010691   6.830844   7.255804   6.733026
    34  H    3.783578   5.589356   7.066617   8.079206   8.436643
    35  H    8.485885   6.671794   4.426181   2.015424   3.739086
    36  H    2.164566   4.619431   6.878981   8.684183  10.505316
    37  H   10.273955   8.891680   6.939804   4.631932   2.236293
    38  H   12.817581  10.972092   8.622720   6.238070   5.620829
    39  H   12.124304  10.442435   8.234435   5.897520   4.838398
    40  H   12.535326  10.952563   8.776444   6.343595   4.328788
                   31         32         33         34         35
    31  H    0.000000
    32  H    2.480804   0.000000
    33  H    4.750161   2.430973   0.000000
    34  H    6.612805   4.346516   1.915901   0.000000
    35  H    5.567776   7.074493   8.105320   9.266644   0.000000
    36  H    9.124240   7.152382   4.822858   3.079899  10.311439
    37  H    4.561002   6.759625   8.510222  10.068179   3.078577
    38  H    8.051971  10.245228  11.851159  13.269190   4.477139
    39  H    7.108560   9.258204  10.897611  12.347237   4.356485
    40  H    6.726739   9.069169  10.910861  12.483802   4.469577
                   36         37         38         39         40
    36  H    0.000000
    37  H   11.799005   0.000000
    38  H   14.604031   3.548703   0.000000
    39  H   13.816861   2.613181   1.792502   0.000000
    40  H   14.149326   2.460937   1.792101   1.798884   0.000000
 Stoichiometry    C21H15NO3
 Framework group  C1[X(C21H15NO3)]
 Deg. of freedom   114
 Full point group                 C1      NOp   1
 Largest Abelian subgroup         C1      NOp   1
 Largest concise Abelian subgroup C1      NOp   1
                         Standard orientation:                         
 ---------------------------------------------------------------------
 Center     Atomic      Atomic             Coordinates (Angstroms)
 Number     Number       Type             X           Y           Z
 ---------------------------------------------------------------------
      1          6           0       -2.867235    0.506059    0.020748
      2          6           0       -2.791440    1.917173    0.022960
      3          6           0       -1.581709    2.585268   -0.015141
      4          6           0       -0.364996    1.872575   -0.059826
      5          6           0        0.899557    2.542156   -0.089303
      6          6           0        2.073791    1.844929   -0.132463
      7          6           0        2.100566    0.408974   -0.159895
      8          6           0        3.322949   -0.331899   -0.212705
      9          6           0        3.247125   -1.741351   -0.222540
     10          6           0        2.035644   -2.414358   -0.164549
     11          6           0        0.817111   -1.711920   -0.113800
     12          6           0       -0.447622   -2.380307   -0.071177
     13          6           0       -1.624334   -1.687959   -0.029602
     14          6           0       -1.652024   -0.250502   -0.024388
     15          6           0       -0.392610    0.443297   -0.067558
     16          6           0        0.843738   -0.284173   -0.115898
     17          6           0       -4.160458   -0.161088    0.065494
     18          6           0        4.619481    0.347155   -0.266682
     19          6           0       -5.377685    0.416554    0.081748
     20          6           0        5.792672   -0.183848    0.135704
     21          8           0        6.952862    0.489215    0.006349
     22          6           0        8.099088   -0.094895    0.595840
     23          7           0       -6.577557   -0.402590    0.129728
     24          8           0       -7.639708    0.209815    0.135790
     25          8           0       -6.475037   -1.622989    0.160774
     26          1           0       -3.712802    2.501522    0.059815
     27          1           0       -1.558847    3.678143   -0.008786
     28          1           0        0.910769    3.635311   -0.070677
     29          1           0        3.013492    2.397418   -0.136987
     30          1           0        4.167640   -2.322464   -0.311053
     31          1           0        2.018991   -3.507768   -0.180143
     32          1           0       -0.459266   -3.473896   -0.072992
     33          1           0       -2.557784   -2.248951    0.000253
     34          1           0       -4.191161   -1.251576    0.089677
     35          1           0        4.666512    1.367214   -0.654809
     36          1           0       -5.619514    1.476926    0.060323
     37          1           0        5.864185   -1.179709    0.592747
     38          1           0        8.952290    0.551936    0.351271
     39          1           0        8.002433   -0.159011    1.694920
     40          1           0        8.291366   -1.106324    0.193222
 ---------------------------------------------------------------------
 Rotational constants (GHZ):           0.7346839           0.0828201           0.0747150
 Leave Link  202 at Fri Aug 15 18:33:51 2025, MaxMem=  1342177280 cpu:               0.1 elap:               0.0
 (Enter /opt/bwhpc/common/chem/gaussian/g16.C.01/x86_64-Intel-avx2-source/g16/l301.exe)
 Standard basis: CC-pVDZ (5D, 7F)
 Ernie: Thresh=  0.10000D-02 Tol=  0.10000D-05 Strict=F.
 Ernie:  50 primitive shells out of 625 were deleted.
 There are   450 symmetry adapted cartesian basis functions of A   symmetry.
 There are   425 symmetry adapted basis functions of A   symmetry.
   425 basis functions,   930 primitive gaussians,   450 cartesian basis functions
    86 alpha electrons       86 beta electrons
       nuclear repulsion energy      1906.5092031784 Hartrees.
 IExCor=    0 DFT=F Ex=HF Corr=None ExCW=0 ScaHFX=  1.000000
 ScaDFX=  1.000000  1.000000  1.000000  1.000000 ScalE2=  1.000000  1.000000
 IRadAn=      5 IRanWt=     -1 IRanGd=            0 ICorTp=0 IEmpDi=  4
 NAtoms=   40 NActive=   40 NUniq=   40 SFac= 1.00D+00 NAtFMM=   60 NAOKFM=F Big=F
 Integral buffers will be    131072 words long.
 Raffenetti 1 integral format.
 Two-electron integral symmetry is turned on.
 Leave Link  301 at Fri Aug 15 18:33:52 2025, MaxMem=  1342177280 cpu:               0.8 elap:               0.1
 (Enter /opt/bwhpc/common/chem/gaussian/g16.C.01/x86_64-Intel-avx2-source/g16/l302.exe)
 NPDir=0 NMtPBC=     1 NCelOv=     1 NCel=       1 NClECP=     1 NCelD=      1
         NCelK=      1 NCelE2=     1 NClLst=     1 CellRange=     0.0.
 One-electron integrals computed using PRISM.
 One-electron integral symmetry used in STVInt
 NBasis=   425 RedAO= T EigKep=  6.95D-05  NBF=   425
 NBsUse=   425 1.00D-06 EigRej= -1.00D+00 NBFU=   425
 Leave Link  302 at Fri Aug 15 18:33:52 2025, MaxMem=  1342177280 cpu:               5.9 elap:               0.4
 (Enter /opt/bwhpc/common/chem/gaussian/g16.C.01/x86_64-Intel-avx2-source/g16/l303.exe)
 DipDrv:  MaxL=1.
 Leave Link  303 at Fri Aug 15 18:33:52 2025, MaxMem=  1342177280 cpu:               1.0 elap:               0.1
 (Enter /opt/bwhpc/common/chem/gaussian/g16.C.01/x86_64-Intel-avx2-source/g16/l401.exe)
 ExpMin= 1.22D-01 ExpMax= 1.17D+04 ExpMxC= 4.01D+02 IAcc=3 IRadAn=         5 AccDes= 0.00D+00
 Harris functional with IExCor=  205 and IRadAn=       5 diagonalized for initial guess.
 HarFok:  IExCor=  205 AccDes= 0.00D+00 IRadAn=         5 IDoV= 1 UseB2=F ITyADJ=14
 ICtDFT=  3500011 ScaDFX=  1.000000  1.000000  1.000000  1.000000
 FoFCou: FMM=F IPFlag=           0 FMFlag=      100000 FMFlg1=           0
         NFxFlg=           0 DoJE=T BraDBF=F KetDBF=T FulRan=T
         wScrn=  0.000000 ICntrl=       500 IOpCl=  0 I1Cent=   200000004 NGrid=           0
         NMat0=    1 NMatS0=      1 NMatT0=    0 NMatD0=    1 NMtDS0=    0 NMtDT0=    0
 Petite list used in FoFCou.
 Harris En= -1084.10321460721    
 JPrj=0 DoOrth=F DoCkMO=F.
 Leave Link  401 at Fri Aug 15 18:33:53 2025, MaxMem=  1342177280 cpu:              20.4 elap:               1.3
 (Enter /opt/bwhpc/common/chem/gaussian/g16.C.01/x86_64-Intel-avx2-source/g16/l502.exe)
 Integral symmetry usage will be decided dynamically.
 Closed shell SCF:
 Using DIIS extrapolation, IDIIS=  1040.
 NGot=  1342177280 LenX=  1341759434 LenY=  1341556484
 Requested convergence on RMS density matrix=1.00D-08 within 128 cycles.
 Requested convergence on MAX density matrix=1.00D-06.
 Requested convergence on             energy=1.00D-06.
 No special actions if energy rises.
 Fock matrices will be formed incrementally for  20 cycles.
 Integral accuracy reduced to 1.0D-05 until final iterations.

 Cycle   1  Pass 0  IDiag  1:
 FoFJK:  IHMeth= 1 ICntrl=       0 DoSepK=F KAlg= 0 I1Cent=           0 FoldK=F
 IRaf= 720000000 NMat=       1 IRICut=       1 DoRegI=T DoRafI=F ISym2E= 0 IDoP0=0 IntGTp=1.
 FoFCou: FMM=F IPFlag=           0 FMFlag=      100000 FMFlg1=           0
         NFxFlg=           0 DoJE=F BraDBF=F KetDBF=F FulRan=T
         wScrn=  0.000000 ICntrl=         0 IOpCl=  0 I1Cent=           0 NGrid=           0
         NMat0=    1 NMatS0=      1 NMatT0=    0 NMatD0=    1 NMtDS0=    0 NMtDT0=    0
 Symmetry not used in FoFCou.
 E= -1082.14886497185    
 DIIS: error= 5.29D-02 at cycle   1 NSaved=   1.
 NSaved= 1 IEnMin= 1 EnMin= -1082.14886497185     IErMin= 1 ErrMin= 5.29D-02
 ErrMax= 5.29D-02  0.00D+00 EMaxC= 1.00D-01 BMatC= 9.94D-01 BMatP= 9.94D-01
 IDIUse=3 WtCom= 4.71D-01 WtEn= 5.29D-01
 Coeff-Com:  0.100D+01
 Coeff-En:   0.100D+01
 Coeff:      0.100D+01
 Gap=     0.257 Goal=   None    Shift=    0.000
 GapD=    0.257 DampG=1.000 DampE=0.500 DampFc=0.5000 IDamp=-1.
 Damping current iteration by 5.00D-01
 RMSDP=7.69D-03 MaxDP=2.82D-01              OVMax= 1.49D-01

 Cycle   2  Pass 0  IDiag  1:
 RMSU=  3.32D-03    CP:  8.93D-01
 E= -1082.56111204183     Delta-E=       -0.412247069983 Rises=F Damp=T
 DIIS: error= 1.76D-02 at cycle   2 NSaved=   2.
 NSaved= 2 IEnMin= 2 EnMin= -1082.56111204183     IErMin= 2 ErrMin= 1.76D-02
 ErrMax= 1.76D-02  0.00D+00 EMaxC= 1.00D-01 BMatC= 1.95D-01 BMatP= 9.94D-01
 IDIUse=3 WtCom= 8.24D-01 WtEn= 1.76D-01
 Coeff-Com: -0.555D+00 0.155D+01
 Coeff-En:   0.000D+00 0.100D+01
 Coeff:     -0.457D+00 0.146D+01
 Gap=     0.314 Goal=   None    Shift=    0.000
 RMSDP=3.76D-03 MaxDP=1.41D-01 DE=-4.12D-01 OVMax= 1.03D-01

 Cycle   3  Pass 0  IDiag  1:
 RMSU=  9.70D-04    CP:  7.87D-01  1.93D+00
 E= -1082.93771752690     Delta-E=       -0.376605485075 Rises=F Damp=F
 DIIS: error= 1.42D-02 at cycle   3 NSaved=   3.
 NSaved= 3 IEnMin= 3 EnMin= -1082.93771752690     IErMin= 3 ErrMin= 1.42D-02
 ErrMax= 1.42D-02  0.00D+00 EMaxC= 1.00D-01 BMatC= 1.44D-02 BMatP= 1.95D-01
 IDIUse=3 WtCom= 8.58D-01 WtEn= 1.42D-01
 Coeff-Com: -0.200D+00 0.389D+00 0.811D+00
 Coeff-En:   0.000D+00 0.000D+00 0.100D+01
 Coeff:     -0.171D+00 0.334D+00 0.838D+00
 Gap=     0.263 Goal=   None    Shift=    0.000
 RMSDP=3.08D-04 MaxDP=2.13D-02 DE=-3.77D-01 OVMax= 2.96D-02

 Cycle   4  Pass 0  IDiag  1:
 RMSU=  2.72D-04    CP:  7.84D-01  1.97D+00  9.39D-01
 E= -1082.94907428678     Delta-E=       -0.011356759875 Rises=F Damp=F
 DIIS: error= 2.96D-03 at cycle   4 NSaved=   4.
 NSaved= 4 IEnMin= 4 EnMin= -1082.94907428678     IErMin= 4 ErrMin= 2.96D-03
 ErrMax= 2.96D-03  0.00D+00 EMaxC= 1.00D-01 BMatC= 1.50D-03 BMatP= 1.44D-02
 IDIUse=3 WtCom= 9.70D-01 WtEn= 2.96D-02
 Coeff-Com: -0.529D-02-0.157D-01 0.236D+00 0.785D+00
 Coeff-En:   0.000D+00 0.000D+00 0.000D+00 0.100D+01
 Coeff:     -0.514D-02-0.152D-01 0.229D+00 0.792D+00
 Gap=     0.266 Goal=   None    Shift=    0.000
 RMSDP=1.20D-04 MaxDP=6.96D-03 DE=-1.14D-02 OVMax= 1.07D-02

 Cycle   5  Pass 0  IDiag  1:
 RMSU=  8.54D-05    CP:  7.82D-01  1.98D+00  1.01D+00  9.74D-01
 E= -1082.95072160864     Delta-E=       -0.001647321859 Rises=F Damp=F
 DIIS: error= 5.35D-04 at cycle   5 NSaved=   5.
 NSaved= 5 IEnMin= 5 EnMin= -1082.95072160864     IErMin= 5 ErrMin= 5.35D-04
 ErrMax= 5.35D-04  0.00D+00 EMaxC= 1.00D-01 BMatC= 7.87D-05 BMatP= 1.50D-03
 IDIUse=3 WtCom= 9.95D-01 WtEn= 5.35D-03
 Coeff-Com:  0.120D-01-0.214D-01-0.769D-01-0.556D-01 0.114D+01
 Coeff-En:   0.000D+00 0.000D+00 0.000D+00 0.000D+00 0.100D+01
 Coeff:      0.120D-01-0.213D-01-0.765D-01-0.553D-01 0.114D+01
 Gap=     0.269 Goal=   None    Shift=    0.000
 RMSDP=5.16D-05 MaxDP=2.20D-03 DE=-1.65D-03 OVMax= 6.91D-03

 Cycle   6  Pass 0  IDiag  1:
 RMSU=  2.74D-05    CP:  7.82D-01  1.98D+00  1.03D+00  1.08D+00  1.30D+00
 E= -1082.95097323169     Delta-E=       -0.000251623051 Rises=F Damp=F
 DIIS: error= 1.62D-04 at cycle   6 NSaved=   6.
 NSaved= 6 IEnMin= 6 EnMin= -1082.95097323169     IErMin= 6 ErrMin= 1.62D-04
 ErrMax= 1.62D-04  0.00D+00 EMaxC= 1.00D-01 BMatC= 1.58D-05 BMatP= 7.87D-05
 IDIUse=3 WtCom= 9.98D-01 WtEn= 1.62D-03
 Coeff-Com:  0.345D-02-0.322D-02-0.456D-01-0.108D+00 0.239D+00 0.914D+00
 Coeff-En:   0.000D+00 0.000D+00 0.000D+00 0.000D+00 0.000D+00 0.100D+01
 Coeff:      0.344D-02-0.322D-02-0.455D-01-0.108D+00 0.239D+00 0.914D+00
 Gap=     0.270 Goal=   None    Shift=    0.000
 RMSDP=2.13D-05 MaxDP=8.25D-04 DE=-2.52D-04 OVMax= 3.43D-03

 Cycle   7  Pass 0  IDiag  1:
 RMSU=  1.29D-05    CP:  7.82D-01  1.98D+00  1.04D+00  1.11D+00  1.45D+00
                    CP:  1.21D+00
 E= -1082.95102079806     Delta-E=       -0.000047566369 Rises=F Damp=F
 DIIS: error= 8.46D-05 at cycle   7 NSaved=   7.
 NSaved= 7 IEnMin= 7 EnMin= -1082.95102079806     IErMin= 7 ErrMin= 8.46D-05
 ErrMax= 8.46D-05  0.00D+00 EMaxC= 1.00D-01 BMatC= 3.38D-06 BMatP= 1.58D-05
 IDIUse=1 WtCom= 1.00D+00 WtEn= 0.00D+00
 Coeff-Com: -0.143D-02 0.293D-02 0.705D-02-0.533D-02-0.172D+00 0.166D+00
 Coeff-Com:  0.100D+01
 Coeff:     -0.143D-02 0.293D-02 0.705D-02-0.533D-02-0.172D+00 0.166D+00
 Coeff:      0.100D+01
 Gap=     0.271 Goal=   None    Shift=    0.000
 RMSDP=1.04D-05 MaxDP=5.19D-04 DE=-4.76D-05 OVMax= 1.67D-03

 Cycle   8  Pass 0  IDiag  1:
 RMSU=  5.31D-06    CP:  7.82D-01  1.98D+00  1.04D+00  1.11D+00  1.50D+00
                    CP:  1.47D+00  1.20D+00
 E= -1082.95102885512     Delta-E=       -0.000008057063 Rises=F Damp=F
 DIIS: error= 3.47D-05 at cycle   8 NSaved=   8.
 NSaved= 8 IEnMin= 8 EnMin= -1082.95102885512     IErMin= 8 ErrMin= 3.47D-05
 ErrMax= 3.47D-05  0.00D+00 EMaxC= 1.00D-01 BMatC= 6.72D-07 BMatP= 3.38D-06
 IDIUse=1 WtCom= 1.00D+00 WtEn= 0.00D+00
 Coeff-Com: -0.126D-02 0.170D-02 0.128D-01 0.232D-01-0.101D+00-0.153D+00
 Coeff-Com:  0.215D+00 0.100D+01
 Coeff:     -0.126D-02 0.170D-02 0.128D-01 0.232D-01-0.101D+00-0.153D+00
 Coeff:      0.215D+00 0.100D+01
 Gap=     0.271 Goal=   None    Shift=    0.000
 RMSDP=5.69D-06 MaxDP=2.62D-04 DE=-8.06D-06 OVMax= 8.26D-04

 Initial convergence to 1.0D-05 achieved.  Increase integral accuracy.
 Cycle   9  Pass 1  IDiag  1:
 E= -1082.95099404665     Delta-E=        0.000034808477 Rises=F Damp=F
 DIIS: error= 1.85D-04 at cycle   1 NSaved=   1.
 NSaved= 1 IEnMin= 1 EnMin= -1082.95099404665     IErMin= 1 ErrMin= 1.85D-04
 ErrMax= 1.85D-04  0.00D+00 EMaxC= 1.00D-01 BMatC= 1.19D-05 BMatP= 1.19D-05
 IDIUse=3 WtCom= 9.98D-01 WtEn= 1.85D-03
 Coeff-Com:  0.100D+01
 Coeff-En:   0.100D+01
 Coeff:      0.100D+01
 Gap=     0.271 Goal=   None    Shift=    0.000
 RMSDP=5.69D-06 MaxDP=2.62D-04 DE= 3.48D-05 OVMax= 3.28D-04

 Cycle  10  Pass 1  IDiag  1:
 RMSU=  2.55D-04    CP:  1.00D+00
 E= -1082.95100213724     Delta-E=       -0.000008090595 Rises=F Damp=F
 DIIS: error= 1.13D-05 at cycle   2 NSaved=   2.
 NSaved= 2 IEnMin= 2 EnMin= -1082.95100213724     IErMin= 2 ErrMin= 1.13D-05
 ErrMax= 1.13D-05  0.00D+00 EMaxC= 1.00D-01 BMatC= 6.31D-08 BMatP= 1.19D-05
 IDIUse=1 WtCom= 1.00D+00 WtEn= 0.00D+00
 Coeff-Com: -0.269D-01 0.103D+01
 Coeff:     -0.269D-01 0.103D+01
 Gap=     0.271 Goal=   None    Shift=    0.000
 RMSDP=1.06D-05 MaxDP=5.21D-04 DE=-8.09D-06 OVMax= 2.07D-04

 Cycle  11  Pass 1  IDiag  1:
 RMSU=  2.91D-06    CP:  1.00D+00  1.04D+00
 E= -1082.95100232376     Delta-E=       -0.000000186520 Rises=F Damp=F
 DIIS: error= 9.13D-06 at cycle   3 NSaved=   3.
 NSaved= 3 IEnMin= 3 EnMin= -1082.95100232376     IErMin= 3 ErrMin= 9.13D-06
 ErrMax= 9.13D-06  0.00D+00 EMaxC= 1.00D-01 BMatC= 3.37D-08 BMatP= 6.31D-08
 IDIUse=1 WtCom= 1.00D+00 WtEn= 0.00D+00
 Coeff-Com: -0.126D-01 0.375D+00 0.638D+00
 Coeff:     -0.126D-01 0.375D+00 0.638D+00
 Gap=     0.271 Goal=   None    Shift=    0.000
 RMSDP=5.90D-07 MaxDP=2.71D-05 DE=-1.87D-07 OVMax= 8.72D-05

 Cycle  12  Pass 1  IDiag  1:
 RMSU=  5.21D-07    CP:  1.00D+00  1.04D+00  1.07D+00
 E= -1082.95100239257     Delta-E=       -0.000000068808 Rises=F Damp=F
 DIIS: error= 6.35D-06 at cycle   4 NSaved=   4.
 NSaved= 4 IEnMin= 4 EnMin= -1082.95100239257     IErMin= 4 ErrMin= 6.35D-06
 ErrMax= 6.35D-06  0.00D+00 EMaxC= 1.00D-01 BMatC= 1.13D-08 BMatP= 3.37D-08
 IDIUse=1 WtCom= 1.00D+00 WtEn= 0.00D+00
 Coeff-Com:  0.184D-01-0.662D+00-0.302D+00 0.195D+01
 Coeff:      0.184D-01-0.662D+00-0.302D+00 0.195D+01
 Gap=     0.272 Goal=   None    Shift=    0.000
 RMSDP=1.31D-06 MaxDP=6.51D-05 DE=-6.88D-08 OVMax= 2.47D-04

 Cycle  13  Pass 1  IDiag  1:
 RMSU=  7.61D-07    CP:  1.00D+00  1.04D+00  1.29D+00  2.59D+00
 E= -1082.95100249364     Delta-E=       -0.000000101073 Rises=F Damp=F
 DIIS: error= 2.52D-06 at cycle   5 NSaved=   5.
 NSaved= 5 IEnMin= 5 EnMin= -1082.95100249364     IErMin= 5 ErrMin= 2.52D-06
 ErrMax= 2.52D-06  0.00D+00 EMaxC= 1.00D-01 BMatC= 1.83D-09 BMatP= 1.13D-08
 IDIUse=1 WtCom= 1.00D+00 WtEn= 0.00D+00
 Coeff-Com:  0.368D-02-0.115D+00-0.190D+00 0.100D+00 0.120D+01
 Coeff:      0.368D-02-0.115D+00-0.190D+00 0.100D+00 0.120D+01
 Gap=     0.272 Goal=   None    Shift=    0.000
 RMSDP=5.73D-07 MaxDP=2.69D-05 DE=-1.01D-07 OVMax= 1.17D-04

 Cycle  14  Pass 1  IDiag  1:
 RMSU=  2.31D-07    CP:  1.00D+00  1.04D+00  1.32D+00  3.00D+00  1.47D+00
 E= -1082.95100250913     Delta-E=       -0.000000015487 Rises=F Damp=F
 DIIS: error= 8.20D-07 at cycle   6 NSaved=   6.
 NSaved= 6 IEnMin= 6 EnMin= -1082.95100250913     IErMin= 6 ErrMin= 8.20D-07
 ErrMax= 8.20D-07  0.00D+00 EMaxC= 1.00D-01 BMatC= 4.02D-10 BMatP= 1.83D-09
 IDIUse=1 WtCom= 1.00D+00 WtEn= 0.00D+00
 Coeff-Com: -0.280D-02 0.105D+00 0.830D-02-0.348D+00 0.318D+00 0.920D+00
 Coeff:     -0.280D-02 0.105D+00 0.830D-02-0.348D+00 0.318D+00 0.920D+00
 Gap=     0.272 Goal=   None    Shift=    0.000
 RMSDP=1.77D-07 MaxDP=6.55D-06 DE=-1.55D-08 OVMax= 3.37D-05

 Cycle  15  Pass 1  IDiag  1:
 RMSU=  7.16D-08    CP:  1.00D+00  1.04D+00  1.32D+00  3.00D+00  1.61D+00
                    CP:  1.47D+00
 E= -1082.95100251102     Delta-E=       -0.000000001893 Rises=F Damp=F
 DIIS: error= 4.50D-07 at cycle   7 NSaved=   7.
 NSaved= 7 IEnMin= 7 EnMin= -1082.95100251102     IErMin= 7 ErrMin= 4.50D-07
 ErrMax= 4.50D-07  0.00D+00 EMaxC= 1.00D-01 BMatC= 8.80D-11 BMatP= 4.02D-10
 IDIUse=1 WtCom= 1.00D+00 WtEn= 0.00D+00
 Coeff-Com: -0.483D-04-0.427D-02 0.409D-01 0.857D-01-0.350D+00-0.499D+00
 Coeff-Com:  0.173D+01
 Coeff:     -0.483D-04-0.427D-02 0.409D-01 0.857D-01-0.350D+00-0.499D+00
 Coeff:      0.173D+01
 Gap=     0.272 Goal=   None    Shift=    0.000
 RMSDP=1.15D-07 MaxDP=6.41D-06 DE=-1.89D-09 OVMax= 2.40D-05

 Cycle  16  Pass 1  IDiag  1:
 RMSU=  5.79D-08    CP:  1.00D+00  1.04D+00  1.32D+00  3.00D+00  1.66D+00
                    CP:  1.76D+00  1.82D+00
 E= -1082.95100251174     Delta-E=       -0.000000000724 Rises=F Damp=F
 DIIS: error= 2.76D-07 at cycle   8 NSaved=   8.
 NSaved= 8 IEnMin= 8 EnMin= -1082.95100251174     IErMin= 8 ErrMin= 2.76D-07
 ErrMax= 2.76D-07  0.00D+00 EMaxC= 1.00D-01 BMatC= 1.68D-11 BMatP= 8.80D-11
 IDIUse=1 WtCom= 1.00D+00 WtEn= 0.00D+00
 Coeff-Com:  0.481D-03-0.199D-01 0.105D-01 0.839D-01-0.151D+00-0.344D+00
 Coeff-Com:  0.571D+00 0.850D+00
 Coeff:      0.481D-03-0.199D-01 0.105D-01 0.839D-01-0.151D+00-0.344D+00
 Coeff:      0.571D+00 0.850D+00
 Gap=     0.272 Goal=   None    Shift=    0.000
 RMSDP=3.49D-08 MaxDP=1.91D-06 DE=-7.24D-10 OVMax= 7.28D-06

 Cycle  17  Pass 1  IDiag  1:
 RMSU=  1.22D-08    CP:  1.00D+00  1.04D+00  1.32D+00  3.00D+00  1.68D+00
                    CP:  1.83D+00  2.08D+00  1.26D+00
 E= -1082.95100251182     Delta-E=       -0.000000000070 Rises=F Damp=F
 DIIS: error= 6.72D-08 at cycle   9 NSaved=   9.
 NSaved= 9 IEnMin= 9 EnMin= -1082.95100251182     IErMin= 9 ErrMin= 6.72D-08
 ErrMax= 6.72D-08  0.00D+00 EMaxC= 1.00D-01 BMatC= 2.38D-12 BMatP= 1.68D-11
 IDIUse=1 WtCom= 1.00D+00 WtEn= 0.00D+00
 Coeff-Com: -0.644D-04 0.362D-02-0.687D-02-0.276D-01 0.809D-01 0.110D+00
 Coeff-Com: -0.354D+00-0.559D-01 0.125D+01
 Coeff:     -0.644D-04 0.362D-02-0.687D-02-0.276D-01 0.809D-01 0.110D+00
 Coeff:     -0.354D+00-0.559D-01 0.125D+01
 Gap=     0.272 Goal=   None    Shift=    0.000
 RMSDP=1.49D-08 MaxDP=8.08D-07 DE=-7.05D-11 OVMax= 2.54D-06

 Cycle  18  Pass 1  IDiag  1:
 RMSU=  7.81D-09    CP:  1.00D+00  1.04D+00  1.32D+00  3.00D+00  1.68D+00
                    CP:  1.85D+00  2.15D+00  1.41D+00  1.46D+00
 E= -1082.95100251181     Delta-E=        0.000000000003 Rises=F Damp=F
 DIIS: error= 2.42D-08 at cycle  10 NSaved=  10.
 NSaved=10 IEnMin= 9 EnMin= -1082.95100251182     IErMin=10 ErrMin= 2.42D-08
 ErrMax= 2.42D-08  0.00D+00 EMaxC= 1.00D-01 BMatC= 4.57D-13 BMatP= 2.38D-12
 IDIUse=1 WtCom= 1.00D+00 WtEn= 0.00D+00
 Coeff-Com: -0.113D-03 0.493D-02-0.346D-02-0.247D-01 0.529D-01 0.960D-01
 Coeff-Com: -0.212D+00-0.174D+00 0.340D+00 0.920D+00
 Coeff:     -0.113D-03 0.493D-02-0.346D-02-0.247D-01 0.529D-01 0.960D-01
 Coeff:     -0.212D+00-0.174D+00 0.340D+00 0.920D+00
 Gap=     0.272 Goal=   None    Shift=    0.000
 RMSDP=4.99D-09 MaxDP=2.28D-07 DE= 3.18D-12 OVMax= 7.50D-07

 SCF Done:  E(RHF) =  -1082.95100251     A.U. after   18 cycles
            NFock= 18  Conv=0.50D-08     -V/T= 2.0012
 KE= 1.081640573283D+03 PE=-6.342854291784D+03 EE= 2.271753512811D+03
 Leave Link  502 at Fri Aug 15 18:34:38 2025, MaxMem=  1342177280 cpu:             711.4 elap:              44.7
 (Enter /opt/bwhpc/common/chem/gaussian/g16.C.01/x86_64-Intel-avx2-source/g16/l801.exe)
 ExpMin= 1.22D-01 ExpMax= 1.17D+04 ExpMxC= 4.01D+02 IAcc=3 IRadAn=         5 AccDes= 0.00D+00
 HarFok:  IExCor=  205 AccDes= 0.00D+00 IRadAn=         5 IDoV=-2 UseB2=F ITyADJ=14
 ICtDFT= 12500011 ScaDFX=  1.000000  1.000000  1.000000  1.000000
 GSVD:  LWork=        -825 too small for GESVD, short by        3500 words or        3500 for optimal perf.
 Largest valence mixing into a core orbital is  1.07D-04
 Largest core mixing into a valence orbital is  6.12D-05
 Range of M.O.s used for correlation:    26   425
 NBasis=   425 NAE=    86 NBE=    86 NFC=    25 NFV=     0
 NROrb=    400 NOA=    61 NOB=    61 NVA=   339 NVB=   339

 **** Warning!!: The largest alpha MO coefficient is  0.23317645D+02

 Leave Link  801 at Fri Aug 15 18:34:38 2025, MaxMem=  1342177280 cpu:               2.3 elap:               0.2
 (Enter /opt/bwhpc/common/chem/gaussian/g16.C.01/x86_64-Intel-avx2-source/g16/l906.exe)
 Frozen-core derivative calculation, NFC=  25 NFV=   0.
 FulOut=F Deriv=T AODrv=F NAtomX=    40
   MMem=           0  MDisk=          61 MDiskD=          61
  W3Min=    16447500 MinDsk=    43525175 NBas6D=         450
 NBas2D=      102045    NTT=      101475    LW2=     3300000
    MDV=  1339676999 MDiskM=       41286 NBas2p=       73954
 Disk-based method using ON**2 memory for 61 occupieds at a time.
 Permanent disk used for amplitudes=  1059354321 words.
 Estimated scratch disk usage=  7782198070 words.
 IMap=   1   2   3   4   5   6   7   8   9  10  11  12  13  14  15  16  17  18  19  20
 IMap=  21  22  23  24  25  26  27  28  29  30  31  32  33  34  35  36  37  38  39  40
 IMap=  41  42  43  44  45  46  47  48  49  50  51  52  53  54  55  56  57  58  59  60
 IMap=  61  62  63  64  65  66  67  68  69  70  71  72  73  74  75  76  77  78  79  80
 IMap=  81  82  83  84  85  86
 Actual    scratch disk usage=  7085642550 words.
 JobTyp=1 Pass  1:  I=  26 to  86 NPSUse= 16 ParTrn=T ParDer=T DoDerP=T.
 Spin components of T(2) and E(2):
     alpha-alpha T2 =       0.1816434064D+00 E2=     -0.4761320131D+00
     alpha-beta  T2 =       0.9069770968D+00 E2=     -0.2508693689D+01
     beta-beta   T2 =       0.1816434064D+00 E2=     -0.4761320131D+00
 The integrals were generated   1 times.
 ANorm=    0.1506739496D+01
 E2 =    -0.3460957715D+01 EUMP2 =    -0.10864119602270D+04
 Leave Link  906 at Fri Aug 15 19:17:33 2025, MaxMem=  1342177280 cpu:           41047.5 elap:            2574.8
 (Enter /opt/bwhpc/common/chem/gaussian/g16.C.01/x86_64-Intel-avx2-source/g16/l1002.exe)
 Minotr:  Closed shell wavefunction.
          Frozen-core window.
          Direct CPHF calculation.
          Differentiating once with respect to electric field.
                with respect to dipole field.
          Electric field/nuclear overlap derivatives assumed to be zero.
          Requested convergence is 1.0D-08 RMS, and 1.0D-07 maximum.
          Secondary convergence is 1.0D-12 RMS, and 1.0D-12 maximum.
          NewPWx=F KeepS1=T KeepF1=T KeepIn=T MapXYZ=F SortEE=F KeepMc=T.
 Two-electron integral symmetry used by symmetrizing perturbed Fock matrices.
          MDV=    1342177280 using IRadAn=       4.
          Solving linear equations simultaneously, MaxMat=     384.
          There are     3 degrees of freedom in the 1st order CPHF.  IDoFFX=0 NUNeed=     3.
      3 vectors produced by pass  0 Test12= 9.72D-13 3.33D-08 XBig12= 2.47D+02 1.17D+01.
 AX will form     3 AO Fock derivatives at one time.
 FoFJK:  IHMeth= 1 ICntrl=       0 DoSepK=F KAlg= 0 I1Cent=           0 FoldK=F
 IRaf= 720000000 NMat=       3 IRICut=       1 DoRegI=T DoRafI=F ISym2E=-1 IDoP0=0 IntGTp=1.
 FoFCou: FMM=F IPFlag=           0 FMFlag=      100000 FMFlg1=           0
         NFxFlg=           0 DoJE=F BraDBF=F KetDBF=F FulRan=T
         wScrn=  0.000000 ICntrl=         0 IOpCl=  0 I1Cent=           0 NGrid=           0
         NMat0=    3 NMatS0=      3 NMatT0=    0 NMatD0=    3 NMtDS0=    0 NMtDT0=    0
 Petite list used in FoFCou.
      3 vectors produced by pass  1 Test12= 9.72D-13 3.33D-08 XBig12= 2.52D+01 1.65D+00.
      3 vectors produced by pass  2 Test12= 9.72D-13 3.33D-08 XBig12= 5.43D+00 6.35D-01.
      3 vectors produced by pass  3 Test12= 9.72D-13 3.33D-08 XBig12= 8.66D-01 2.25D-01.
      3 vectors produced by pass  4 Test12= 9.72D-13 3.33D-08 XBig12= 1.75D-01 1.02D-01.
      3 vectors produced by pass  5 Test12= 9.72D-13 3.33D-08 XBig12= 1.42D-02 1.54D-02.
      3 vectors produced by pass  6 Test12= 9.72D-13 3.33D-08 XBig12= 2.17D-03 7.72D-03.
      3 vectors produced by pass  7 Test12= 9.72D-13 3.33D-08 XBig12= 2.83D-04 3.27D-03.
      3 vectors produced by pass  8 Test12= 9.72D-13 3.33D-08 XBig12= 4.90D-05 1.10D-03.
      3 vectors produced by pass  9 Test12= 9.72D-13 3.33D-08 XBig12= 6.62D-06 3.70D-04.
      3 vectors produced by pass 10 Test12= 9.72D-13 3.33D-08 XBig12= 8.75D-07 1.21D-04.
      3 vectors produced by pass 11 Test12= 9.72D-13 3.33D-08 XBig12= 1.05D-07 6.20D-05.
      3 vectors produced by pass 12 Test12= 9.72D-13 3.33D-08 XBig12= 7.97D-09 1.76D-05.
      3 vectors produced by pass 13 Test12= 9.72D-13 3.33D-08 XBig12= 8.94D-10 5.08D-06.
      3 vectors produced by pass 14 Test12= 9.72D-13 3.33D-08 XBig12= 1.07D-10 1.57D-06.
      3 vectors produced by pass 15 Test12= 9.72D-13 3.33D-08 XBig12= 9.43D-12 6.82D-07.
      2 vectors produced by pass 16 Test12= 9.72D-13 3.33D-08 XBig12= 8.98D-13 1.24D-07.
      1 vectors produced by pass 17 Test12= 9.72D-13 3.33D-08 XBig12= 4.89D-14 4.29D-08.
 InvSVY:  IOpt=1 It=  1 EMax= 2.66D-15
 Solved reduced A of dimension    51 with     3 vectors.
 FullF1:  Do perturbations      1 to       3.
 Saving first derivative matrices.
 End of Minotr F.D. properties file   721 does not exist.
 End of Minotr F.D. properties file   722 does not exist.
 End of Minotr F.D. properties file   788 does not exist.
 Leave Link 1002 at Fri Aug 15 19:19:29 2025, MaxMem=  1342177280 cpu:            1836.5 elap:             115.2
 (Enter /opt/bwhpc/common/chem/gaussian/g16.C.01/x86_64-Intel-avx2-source/g16/l811.exe)
 MDV=  1342177280.
 Form MO integral derivatives with frozen-active canonical formalism.
 MOERI=1 MOERIx=0 NAtoms=    40 NAtomX=    40.
 Discarding MO integrals.
 MO basis two electron integral derivatives will not be stored on disk.
 IAlg= 3 DoFC=T DoPWx=T Debug=F.
 Frozen-core window:  NFC=  25 NFV=   0.
 Reordered first order wavefunction length =   1699911432
 In DefCFB: NBatch=  1 ICI= 86 ICA=339 LFMax= 68
            Large arrays: LIAPS=  5575702500 LIARS=   196789500 words.
 In StABat: MaxSiz= 15 MinSiz= 15 NAtomB= 30
 DoIAMN: NPSUse= 16.
 Leave Link  811 at Fri Aug 15 19:43:19 2025, MaxMem=  1342177280 cpu:           22800.7 elap:            1430.1
 (Enter /opt/bwhpc/common/chem/gaussian/g16.C.01/x86_64-Intel-avx2-source/g16/l804.exe)
 Frozen-core window:  NFC=  25 NFV=   0.
 Closed-shell transformation, MDV=  1342177280 ITran=4 ISComp=1.
 Semi-Direct transformation.
 ModeAB=           4 MOrb=            86 LenV=    1337662568
 LASXX=   2842855345 LTotXX=  2842855345 LenRXX=  5711610106
 LTotAB=  2868754761 MaxLAS=  2465005100 LenRXY=           0
 NonZer=  8554465451 LenScr= 17176027136 LnRSAI=  2465005100
 LnScr1=  4949344256 LExtra=           0 Total=  30301986598
 MaxDsk=          -1 SrtSym=           T ITran=            4
 DoSDTr:  NPSUse= 16
 JobTyp=0 Pass  1:  I=   1 to  86.
 Complete sort for first half transformation.
 First half transformation complete.
 Begin second half transformation for I=  10.
 Begin second half transformation for I=  20.
 Begin second half transformation for I=  30.
 Begin second half transformation for I=  40.
 Begin second half transformation for I=  50.
 Begin second half transformation for I=  60.
 Begin second half transformation for I=  70.
 Begin second half transformation for I=  80.
 Complete sort for second half transformation.
 Second half transformation complete.
 SymMOI:  orbitals are not symmetric.
 Spin components of T(2) and E(2):
     alpha-alpha T2 =       0.1816434064D+00 E2=     -0.4761320131D+00
     alpha-beta  T2 =       0.9069770968D+00 E2=     -0.2508693689D+01
     beta-beta   T2 =       0.1816434064D+00 E2=     -0.4761320131D+00
 ANorm=    0.2130851431D+01
 E2 =    -0.3460957715D+01 EUMP2 =    -0.10864119602270D+04
 Leave Link  804 at Fri Aug 15 20:05:36 2025, MaxMem=  1342177280 cpu:           21327.4 elap:            1336.5
 (Enter /opt/bwhpc/common/chem/gaussian/g16.C.01/x86_64-Intel-avx2-source/g16/l1002.exe)
 Minotr:  Closed shell wavefunction.
          Computing MP2/KS-MP2 derivatives.
          Using Z-Vector for PSCF gradient.
          Skipping F1 and S1 gradient terms here.
          Frozen-core window.
          Using MO integrals in the linear equations.
          Forming densities via direct SCF.
          Differentiating once with respect to electric field.
                with respect to dipole field.
          Electric field/nuclear overlap derivatives assumed to be zero.
          Requested convergence is 1.0D-10 RMS, and 1.0D-09 maximum.
          NewPWx=F KeepS1=T KeepF1=T KeepIn=T MapXYZ=F SortEE=F KeepMc=T.
          MDV=    1342177280 using IRadAn=       5.
          Solving linear equations separately, MaxMat=       0.
          There are     1 degrees of freedom in the 1st order CPHF.  IDoFFX=0 NUNeed=     1.
 FoFJK:  IHMeth= 1 ICntrl=       0 DoSepK=F KAlg= 0 I1Cent=           0 FoldK=F
 IRaf=         0 NMat=       1 IRICut=       1 DoRegI=T DoRafI=F ISym2E= 0 IDoP0=0 IntGTp=1.
 FoFCou: FMM=F IPFlag=           0 FMFlag=      100000 FMFlg1=           0
         NFxFlg=           0 DoJE=F BraDBF=F KetDBF=F FulRan=T
         wScrn=  0.000000 ICntrl=         0 IOpCl=  0 I1Cent=           0 NGrid=           0
         NMat0=    1 NMatS0=      1 NMatT0=    0 NMatD0=    1 NMtDS0=    0 NMtDT0=    0
 Symmetry not used in FoFCou.
 LinEq1:  Iter=  0 NonCon=     1 RMS=3.12D-03 Max=1.05D-01 NDo=     1
 LinEq1:  Iter=  1 NonCon=     1 RMS=8.15D-04 Max=2.99D-02 NDo=     1
 LinEq1:  Iter=  2 NonCon=     1 RMS=4.27D-04 Max=1.62D-02 NDo=     1
 LinEq1:  Iter=  3 NonCon=     1 RMS=1.81D-04 Max=8.88D-03 NDo=     1
 LinEq1:  Iter=  4 NonCon=     1 RMS=6.96D-05 Max=4.82D-03 NDo=     1
 LinEq1:  Iter=  5 NonCon=     1 RMS=2.99D-05 Max=1.32D-03 NDo=     1
 LinEq1:  Iter=  6 NonCon=     1 RMS=1.36D-05 Max=6.92D-04 NDo=     1
 LinEq1:  Iter=  7 NonCon=     1 RMS=4.64D-06 Max=2.77D-04 NDo=     1
 LinEq1:  Iter=  8 NonCon=     1 RMS=2.22D-06 Max=9.36D-05 NDo=     1
 LinEq1:  Iter=  9 NonCon=     1 RMS=8.03D-07 Max=2.79D-05 NDo=     1
 LinEq1:  Iter= 10 NonCon=     1 RMS=2.97D-07 Max=9.90D-06 NDo=     1
 LinEq1:  Iter= 11 NonCon=     1 RMS=1.24D-07 Max=4.47D-06 NDo=     1
 LinEq1:  Iter= 12 NonCon=     1 RMS=4.79D-08 Max=1.91D-06 NDo=     1
 LinEq1:  Iter= 13 NonCon=     1 RMS=2.22D-08 Max=5.99D-07 NDo=     1
 LinEq1:  Iter= 14 NonCon=     1 RMS=6.95D-09 Max=1.71D-07 NDo=     1
 LinEq1:  Iter= 15 NonCon=     1 RMS=3.25D-09 Max=1.09D-07 NDo=     1
 LinEq1:  Iter= 16 NonCon=     1 RMS=1.15D-09 Max=4.66D-08 NDo=     1
 LinEq1:  Iter= 17 NonCon=     1 RMS=5.78D-10 Max=3.25D-08 NDo=     1
 LinEq1:  Iter= 18 NonCon=     1 RMS=2.35D-10 Max=1.21D-08 NDo=     1
 LinEq1:  Iter= 19 NonCon=     1 RMS=9.14D-11 Max=3.38D-09 NDo=     1
 LinEq1:  Iter= 20 NonCon=     1 RMS=3.52D-11 Max=1.59D-09 NDo=     1
 LinEq1:  Iter= 21 NonCon=     0 RMS=1.16D-11 Max=4.10D-10 NDo=     1
 Linear equations converged to 1.000D-10 1.000D-09 after    21 iterations.
 End of Minotr F.D. properties file   721 does not exist.
 End of Minotr F.D. properties file   722 does not exist.
 End of Minotr F.D. properties file   788 does not exist.
 Leave Link 1002 at Fri Aug 15 20:09:34 2025, MaxMem=  1342177280 cpu:            3756.0 elap:             237.4
 (Enter /opt/bwhpc/common/chem/gaussian/g16.C.01/x86_64-Intel-avx2-source/g16/l1112.exe)
 MP22nd: MDV=    1342177280
 This link is doing NAtomX=    40 total of     3 degrees of freedom.
 Using gON3 I/O method in MakUI.
 Frozen-core window:  NFC=  25 NFV=   0.
 Using Ix for Sx.
 Use MO integrals over full window.
 Using OV2 memory method for fx*t*t/D, MaxI=     8 DoOO2=F NP=  16.
 Would need an additional  9000970707 words for in-memory AO integral storage.
 DD1Dir will call FoFJK  27 times, MxPair=       278
 NAB=  3741 NAA=     0 NBB=     0 NumPrc= 16.
 DD1Dir:  Pass   1 NRAB=   139 NRAA=     0 NRBB=     0 NR=   278.
 FoFJK:  IHMeth= 1 ICntrl=     200 DoSepK=F KAlg= 0 I1Cent=           0 FoldK=F
 IRaf= 990000000 NMat=     278 IRICut=     347 DoRegI=T DoRafI=T ISym2E= 2 IDoP0=3 IntGTp=3.
 FoFCou: FMM=F IPFlag=           0 FMFlag=           0 FMFlg1=           0
         NFxFlg=           0 DoJE=F BraDBF=F KetDBF=F FulRan=T
         wScrn=  0.000000 ICntrl=       200 IOpCl=  0 I1Cent=           0 NGrid=           0
         NMat0=  278 NMatS0=      0 NMatT0=  139 NMatD0=  278 NMtDS0=    0 NMtDT0=    0
 Integrals replicated using symmetry in FoFCou.
 Raff kept on since  20.82% of shell-pairs survive, threshold=   0.20 IRatSp=21.
 DD1Dir:  Pass   2 NRAB=   139 NRAA=     0 NRBB=     0 NR=   278.
 DD1Dir:  Pass   3 NRAB=   139 NRAA=     0 NRBB=     0 NR=   278.
 DD1Dir:  Pass   4 NRAB=   139 NRAA=     0 NRBB=     0 NR=   278.
 DD1Dir:  Pass   5 NRAB=   139 NRAA=     0 NRBB=     0 NR=   278.
 DD1Dir:  Pass   6 NRAB=   139 NRAA=     0 NRBB=     0 NR=   278.
 DD1Dir:  Pass   7 NRAB=   139 NRAA=     0 NRBB=     0 NR=   278.
 DD1Dir:  Pass   8 NRAB=   139 NRAA=     0 NRBB=     0 NR=   278.
 DD1Dir:  Pass   9 NRAB=   139 NRAA=     0 NRBB=     0 NR=   278.
 DD1Dir:  Pass  10 NRAB=   139 NRAA=     0 NRBB=     0 NR=   278.
 DD1Dir:  Pass  11 NRAB=   139 NRAA=     0 NRBB=     0 NR=   278.
 DD1Dir:  Pass  12 NRAB=   139 NRAA=     0 NRBB=     0 NR=   278.
 DD1Dir:  Pass  13 NRAB=   139 NRAA=     0 NRBB=     0 NR=   278.
 DD1Dir:  Pass  14 NRAB=   139 NRAA=     0 NRBB=     0 NR=   278.
 DD1Dir:  Pass  15 NRAB=   139 NRAA=     0 NRBB=     0 NR=   278.
 DD1Dir:  Pass  16 NRAB=   139 NRAA=     0 NRBB=     0 NR=   278.
 DD1Dir:  Pass  17 NRAB=   139 NRAA=     0 NRBB=     0 NR=   278.
 DD1Dir:  Pass  18 NRAB=   139 NRAA=     0 NRBB=     0 NR=   278.
 DD1Dir:  Pass  19 NRAB=   139 NRAA=     0 NRBB=     0 NR=   278.
 DD1Dir:  Pass  20 NRAB=   139 NRAA=     0 NRBB=     0 NR=   278.
 DD1Dir:  Pass  21 NRAB=   139 NRAA=     0 NRBB=     0 NR=   278.
 DD1Dir:  Pass  22 NRAB=   139 NRAA=     0 NRBB=     0 NR=   278.
 DD1Dir:  Pass  23 NRAB=   139 NRAA=     0 NRBB=     0 NR=   278.
 DD1Dir:  Pass  24 NRAB=   139 NRAA=     0 NRBB=     0 NR=   278.
 DD1Dir:  Pass  25 NRAB=   139 NRAA=     0 NRBB=     0 NR=   278.
 DD1Dir:  Pass  26 NRAB=   139 NRAA=     0 NRBB=     0 NR=   278.
 DD1Dir:  Pass  27 NRAB=   127 NRAA=     0 NRBB=     0 NR=   254.
 Symmetry is being used.
 Discarding MO integrals.
 Leave Link 1112 at Fri Aug 15 21:16:28 2025, MaxMem=  1342177280 cpu:           63985.9 elap:            4013.4
 (Enter /opt/bwhpc/common/chem/gaussian/g16.C.01/x86_64-Intel-avx2-source/g16/l601.exe)
 Copying SCF densities to generalized density rwf, IOpCl= 0 IROHF=0.

 **********************************************************************

            Population analysis using the MP2 Density.

 **********************************************************************

 Orbital symmetries:
       Occupied  (A) (A) (A) (A) (A) (A) (A) (A) (A) (A) (A) (A)
                 (A) (A) (A) (A) (A) (A) (A) (A) (A) (A) (A) (A)
                 (A) (A) (A) (A) (A) (A) (A) (A) (A) (A) (A) (A)
                 (A) (A) (A) (A) (A) (A) (A) (A) (A) (A) (A) (A)
                 (A) (A) (A) (A) (A) (A) (A) (A) (A) (A) (A) (A)
                 (A) (A) (A) (A) (A) (A) (A) (A) (A) (A) (A) (A)
                 (A) (A) (A) (A) (A) (A) (A) (A) (A) (A) (A) (A)
                 (A) (A)
       Virtual   (A) (A) (A) (A) (A) (A) (A) (A) (A) (A) (A) (A)
                 (A) (A) (A) (A) (A) (A) (A) (A) (A) (A) (A) (A)
                 (A) (A) (A) (A) (A) (A) (A) (A) (A) (A) (A) (A)
                 (A) (A) (A) (A) (A) (A) (A) (A) (A) (A) (A) (A)
                 (A) (A) (A) (A) (A) (A) (A) (A) (A) (A) (A) (A)
                 (A) (A) (A) (A) (A) (A) (A) (A) (A) (A) (A) (A)
                 (A) (A) (A) (A) (A) (A) (A) (A) (A) (A) (A) (A)
                 (A) (A) (A) (A) (A) (A) (A) (A) (A) (A) (A) (A)
                 (A) (A) (A) (A) (A) (A) (A) (A) (A) (A) (A) (A)
                 (A) (A) (A) (A) (A) (A) (A) (A) (A) (A) (A) (A)
                 (A) (A) (A) (A) (A) (A) (A) (A) (A) (A) (A) (A)
                 (A) (A) (A) (A) (A) (A) (A) (A) (A) (A) (A) (A)
                 (A) (A) (A) (A) (A) (A) (A) (A) (A) (A) (A) (A)
                 (A) (A) (A) (A) (A) (A) (A) (A) (A) (A) (A) (A)
                 (A) (A) (A) (A) (A) (A) (A) (A) (A) (A) (A) (A)
                 (A) (A) (A) (A) (A) (A) (A) (A) (A) (A) (A) (A)
                 (A) (A) (A) (A) (A) (A) (A) (A) (A) (A) (A) (A)
                 (A) (A) (A) (A) (A) (A) (A) (A) (A) (A) (A) (A)
                 (A) (A) (A) (A) (A) (A) (A) (A) (A) (A) (A) (A)
                 (A) (A) (A) (A) (A) (A) (A) (A) (A) (A) (A) (A)
                 (A) (A) (A) (A) (A) (A) (A) (A) (A) (A) (A) (A)
                 (A) (A) (A) (A) (A) (A) (A) (A) (A) (A) (A) (A)
                 (A) (A) (A) (A) (A) (A) (A) (A) (A) (A) (A) (A)
                 (A) (A) (A) (A) (A) (A) (A) (A) (A) (A) (A) (A)
                 (A) (A) (A) (A) (A) (A) (A) (A) (A) (A) (A) (A)
                 (A) (A) (A) (A) (A) (A) (A) (A) (A) (A) (A) (A)
                 (A) (A) (A) (A) (A) (A) (A) (A) (A) (A) (A) (A)
                 (A) (A) (A) (A) (A) (A) (A) (A) (A) (A) (A) (A)
                 (A) (A) (A)
 The electronic state is 1-A.
 Alpha  occ. eigenvalues --  -20.60121 -20.58369 -20.58024 -15.83453 -11.32089
 Alpha  occ. eigenvalues --  -11.31008 -11.29501 -11.29339 -11.28130 -11.27529
 Alpha  occ. eigenvalues --  -11.27298 -11.27224 -11.26802 -11.26772 -11.26709
 Alpha  occ. eigenvalues --  -11.26500 -11.26384 -11.26233 -11.26161 -11.25988
 Alpha  occ. eigenvalues --  -11.25702 -11.25668 -11.25633 -11.25468 -11.24270
 Alpha  occ. eigenvalues --   -1.59067  -1.43105  -1.38285  -1.21485  -1.17253
 Alpha  occ. eigenvalues --   -1.14102  -1.13204  -1.09922  -1.07487  -1.04873
 Alpha  occ. eigenvalues --   -1.03215  -1.01154  -0.99876  -0.95349  -0.93457
 Alpha  occ. eigenvalues --   -0.87754  -0.86988  -0.86180  -0.84249  -0.80700
 Alpha  occ. eigenvalues --   -0.79907  -0.76247  -0.74369  -0.72738  -0.72495
 Alpha  occ. eigenvalues --   -0.71106  -0.70679  -0.70103  -0.69570  -0.68039
 Alpha  occ. eigenvalues --   -0.66575  -0.66376  -0.64150  -0.63309  -0.62412
 Alpha  occ. eigenvalues --   -0.61223  -0.59905  -0.58665  -0.57646  -0.57431
 Alpha  occ. eigenvalues --   -0.57054  -0.56701  -0.55677  -0.54334  -0.52667
 Alpha  occ. eigenvalues --   -0.52406  -0.51321  -0.50788  -0.49172  -0.48134
 Alpha  occ. eigenvalues --   -0.47856  -0.47531  -0.47095  -0.45173  -0.43383
 Alpha  occ. eigenvalues --   -0.40581  -0.38755  -0.35710  -0.33204  -0.31097
 Alpha  occ. eigenvalues --   -0.25673
 Alpha virt. eigenvalues --    0.01479   0.06904   0.08122   0.11686   0.13397
 Alpha virt. eigenvalues --    0.16902   0.17090   0.17755   0.18123   0.18788
 Alpha virt. eigenvalues --    0.19117   0.20068   0.21018   0.21534   0.23759
 Alpha virt. eigenvalues --    0.24209   0.24489   0.24551   0.26318   0.27035
 Alpha virt. eigenvalues --    0.27751   0.29177   0.30708   0.31619   0.33277
 Alpha virt. eigenvalues --    0.34382   0.34963   0.37678   0.39168   0.39920
 Alpha virt. eigenvalues --    0.41165   0.42050   0.43557   0.44756   0.45358
 Alpha virt. eigenvalues --    0.45972   0.46267   0.47012   0.47714   0.49633
 Alpha virt. eigenvalues --    0.50056   0.52429   0.54085   0.57367   0.58219
 Alpha virt. eigenvalues --    0.58985   0.60263   0.60594   0.62107   0.63432
 Alpha virt. eigenvalues --    0.63553   0.63639   0.63964   0.64979   0.65091
 Alpha virt. eigenvalues --    0.65676   0.65984   0.66505   0.67052   0.67285
 Alpha virt. eigenvalues --    0.67810   0.68430   0.69023   0.70062   0.70293
 Alpha virt. eigenvalues --    0.70484   0.71376   0.71931   0.72759   0.72981
 Alpha virt. eigenvalues --    0.73291   0.73654   0.74062   0.74451   0.74943
 Alpha virt. eigenvalues --    0.75271   0.75844   0.76490   0.77113   0.77750
 Alpha virt. eigenvalues --    0.78598   0.79011   0.79811   0.80516   0.80798
 Alpha virt. eigenvalues --    0.82458   0.82743   0.83134   0.84119   0.85097
 Alpha virt. eigenvalues --    0.85719   0.86570   0.86850   0.87484   0.88148
 Alpha virt. eigenvalues --    0.88674   0.89469   0.90104   0.90568   0.91274
 Alpha virt. eigenvalues --    0.91383   0.92500   0.92818   0.94318   0.94684
 Alpha virt. eigenvalues --    0.95663   0.96564   0.98740   1.00382   1.00652
 Alpha virt. eigenvalues --    1.00977   1.02063   1.04739   1.05301   1.06560
 Alpha virt. eigenvalues --    1.06751   1.07539   1.08714   1.09198   1.10113
 Alpha virt. eigenvalues --    1.10475   1.11101   1.12036   1.12291   1.13616
 Alpha virt. eigenvalues --    1.14087   1.14373   1.15152   1.15539   1.16009
 Alpha virt. eigenvalues --    1.16313   1.16893   1.17388   1.18221   1.18755
 Alpha virt. eigenvalues --    1.19236   1.19580   1.19849   1.21068   1.21787
 Alpha virt. eigenvalues --    1.23019   1.23443   1.23915   1.24980   1.25619
 Alpha virt. eigenvalues --    1.26835   1.27527   1.27808   1.28741   1.28877
 Alpha virt. eigenvalues --    1.29175   1.29782   1.30271   1.31303   1.32665
 Alpha virt. eigenvalues --    1.32765   1.34108   1.35306   1.37243   1.38463
 Alpha virt. eigenvalues --    1.38936   1.39546   1.39635   1.42651   1.44066
 Alpha virt. eigenvalues --    1.45718   1.48401   1.49179   1.51586   1.56481
 Alpha virt. eigenvalues --    1.56728   1.57553   1.58570   1.58747   1.59221
 Alpha virt. eigenvalues --    1.60522   1.61045   1.61340   1.62248   1.63527
 Alpha virt. eigenvalues --    1.63859   1.64057   1.65695   1.66930   1.67355
 Alpha virt. eigenvalues --    1.67774   1.69044   1.70050   1.70605   1.71796
 Alpha virt. eigenvalues --    1.73495   1.73953   1.74859   1.76223   1.76797
 Alpha virt. eigenvalues --    1.77735   1.78943   1.79671   1.79766   1.82050
 Alpha virt. eigenvalues --    1.82574   1.82700   1.83074   1.83531   1.84242
 Alpha virt. eigenvalues --    1.85635   1.85936   1.86655   1.87364   1.87626
 Alpha virt. eigenvalues --    1.88652   1.89679   1.90037   1.90355   1.90658
 Alpha virt. eigenvalues --    1.91553   1.92641   1.92944   1.93175   1.93730
 Alpha virt. eigenvalues --    1.93894   1.95109   1.96220   1.96943   1.97573
 Alpha virt. eigenvalues --    1.98983   1.99804   2.00743   2.01076   2.02134
 Alpha virt. eigenvalues --    2.02576   2.03900   2.05293   2.06029   2.06639
 Alpha virt. eigenvalues --    2.07159   2.08360   2.08699   2.09362   2.09976
 Alpha virt. eigenvalues --    2.10902   2.11186   2.11861   2.12219   2.12842
 Alpha virt. eigenvalues --    2.14603   2.15695   2.17358   2.18291   2.19057
 Alpha virt. eigenvalues --    2.19846   2.20813   2.22385   2.24400   2.25062
 Alpha virt. eigenvalues --    2.25220   2.26848   2.28478   2.29124   2.29687
 Alpha virt. eigenvalues --    2.30442   2.32251   2.33141   2.34501   2.34929
 Alpha virt. eigenvalues --    2.35309   2.36795   2.38351   2.38692   2.40422
 Alpha virt. eigenvalues --    2.40659   2.40904   2.41753   2.42671   2.44766
 Alpha virt. eigenvalues --    2.45500   2.46524   2.48204   2.49127   2.50501
 Alpha virt. eigenvalues --    2.51123   2.52085   2.53295   2.55246   2.56055
 Alpha virt. eigenvalues --    2.57877   2.59313   2.61572   2.62393   2.66051
 Alpha virt. eigenvalues --    2.67202   2.68474   2.69580   2.70446   2.70715
 Alpha virt. eigenvalues --    2.74109   2.76781   2.78494   2.79069   2.79553
 Alpha virt. eigenvalues --    2.80712   2.82735   2.83715   2.86547   2.87363
 Alpha virt. eigenvalues --    2.92176   2.94663   2.96532   2.98723   2.99032
 Alpha virt. eigenvalues --    3.00018   3.02117   3.03193   3.06699   3.07983
 Alpha virt. eigenvalues --    3.09853   3.11320   3.13024   3.14809   3.15641
 Alpha virt. eigenvalues --    3.16997   3.20629   3.24170   3.31831   3.37631
 Alpha virt. eigenvalues --    3.37932   3.38348   3.39863   3.60428   3.61637
 Alpha virt. eigenvalues --    3.62866   3.70641   3.75128   3.79184   3.80719
 Alpha virt. eigenvalues --    3.83448   3.88861   4.02702   4.06368
          Condensed to atoms (all electrons):
               1          2          3          4          5          6
     1  C    5.613917   0.340065   0.036451  -0.112589  -0.001871   0.000137
     2  C    0.340065   5.136817   0.354891   0.035179   0.009347  -0.000519
     3  C    0.036451   0.354891   5.071148   0.334077  -0.110572   0.008582
     4  C   -0.112589   0.035179   0.334077   5.537518   0.313625   0.036344
     5  C   -0.001871   0.009347  -0.110572   0.313625   5.075578   0.378020
     6  C    0.000137  -0.000519   0.008582   0.036344   0.378020   5.155629
     7  C   -0.000367   0.000062  -0.001359  -0.113765   0.032071   0.302315
     8  C   -0.000004   0.000001  -0.000003  -0.002415   0.014558  -0.109242
     9  C    0.000001  -0.000000   0.000001  -0.000041   0.000011   0.014593
    10  C   -0.000003   0.000001  -0.000004  -0.000104   0.000038  -0.003000
    11  C   -0.002306  -0.000015  -0.000139   0.026641  -0.003912   0.022230
    12  C    0.014147  -0.000019   0.000072  -0.004022  -0.000041   0.000075
    13  C   -0.122222   0.014497  -0.003171   0.022250   0.000089  -0.000079
    14  C    0.127523   0.010708  -0.118451  -0.037981   0.020762  -0.003975
    15  C    0.014069  -0.113099   0.013088   0.127428   0.010303  -0.118291
    16  C    0.027924  -0.003712   0.022315  -0.029689  -0.121391  -0.005175
    17  C    0.199435  -0.110089   0.012376  -0.001916   0.000000   0.000000
    18  C    0.000000   0.000000  -0.000000   0.000002  -0.000306  -0.021531
    19  C   -0.034268  -0.025140  -0.000574   0.000046  -0.000000  -0.000000
    20  C    0.000000  -0.000000  -0.000000   0.000002  -0.000054  -0.000594
    21  O   -0.000000   0.000000  -0.000000  -0.000000  -0.000000  -0.000011
    22  C   -0.000000   0.000000  -0.000000  -0.000000   0.000000   0.000001
    23  N    0.002239  -0.000241  -0.000005   0.000000  -0.000000  -0.000000
    24  O   -0.000111   0.000002  -0.000000  -0.000000  -0.000000  -0.000000
    25  O    0.001316   0.000018   0.000000  -0.000000  -0.000000   0.000000
    26  H   -0.030511   0.383141  -0.042338   0.008497  -0.000295   0.000006
    27  H    0.007907  -0.039771   0.380645  -0.032309  -0.015221   0.000420
    28  H   -0.000052   0.000373  -0.015705  -0.036049   0.380659  -0.036710
    29  H    0.000001   0.000007  -0.000299   0.008023  -0.046484   0.377299
    30  H    0.000000   0.000000   0.000000  -0.000000   0.000005  -0.000245
    31  H   -0.000001   0.000000  -0.000000   0.000004   0.000000   0.000034
    32  H   -0.000368   0.000005   0.000001   0.000016   0.000000   0.000005
    33  H   -0.039102  -0.001048   0.000010  -0.000063   0.000002  -0.000000
    34  H    0.014888   0.010080  -0.000039  -0.000109  -0.000000   0.000000
    35  H   -0.000000   0.000000  -0.000000  -0.000062   0.001330   0.005862
    36  H   -0.016090   0.004139   0.000609  -0.000041  -0.000000   0.000000
    37  H   -0.000000  -0.000000   0.000000  -0.000000   0.000001  -0.000032
    38  H   -0.000000   0.000000   0.000000  -0.000000   0.000000   0.000000
    39  H    0.000000  -0.000000  -0.000000   0.000000   0.000000   0.000000
    40  H   -0.000000  -0.000000  -0.000000  -0.000000  -0.000000  -0.000000
               7          8          9         10         11         12
     1  C   -0.000367  -0.000004   0.000001  -0.000003  -0.002306   0.014147
     2  C    0.000062   0.000001  -0.000000   0.000001  -0.000015  -0.000019
     3  C   -0.001359  -0.000003   0.000001  -0.000004  -0.000139   0.000072
     4  C   -0.113765  -0.002415  -0.000041  -0.000104   0.026641  -0.004022
     5  C    0.032071   0.014558   0.000011   0.000038  -0.003912  -0.000041
     6  C    0.302315  -0.109242   0.014593  -0.003000   0.022230   0.000075
     7  C    5.800949   0.165403   0.016123  -0.111824  -0.044186   0.020836
     8  C    0.165403   5.499412   0.353064   0.020632  -0.107474  -0.001722
     9  C    0.016123   0.353064   5.098639   0.347013   0.034317   0.009227
    10  C   -0.111824   0.020632   0.347013   5.110729   0.341019  -0.111192
    11  C   -0.044186  -0.107474   0.034317   0.341019   5.514524   0.307681
    12  C    0.020836  -0.001722   0.009227  -0.111192   0.307681   5.091556
    13  C   -0.003868   0.000112  -0.000503   0.008710   0.036778   0.376128
    14  C    0.027616  -0.000295   0.000065  -0.001423  -0.113434   0.035312
    15  C   -0.034256   0.027226  -0.004267   0.023159  -0.029270  -0.120838
    16  C    0.056995  -0.000110  -0.113128   0.009003   0.127092   0.010891
    17  C    0.000001   0.000000   0.000000  -0.000001  -0.000056   0.000081
    18  C   -0.066876   0.307395  -0.093090   0.010240  -0.001139   0.000004
    19  C    0.000000   0.000000  -0.000000  -0.000000   0.000001  -0.000049
    20  C    0.010028  -0.039957  -0.022136  -0.000072  -0.000009  -0.000000
    21  O   -0.000044   0.000319   0.000021  -0.000002  -0.000000  -0.000000
    22  C    0.000002   0.000003  -0.000022  -0.000001   0.000000  -0.000000
    23  N   -0.000000   0.000000   0.000000   0.000000   0.000000  -0.000000
    24  O   -0.000000   0.000000   0.000000  -0.000000  -0.000000  -0.000000
    25  O   -0.000000   0.000000  -0.000000  -0.000000   0.000000  -0.000001
    26  H    0.000001   0.000000  -0.000000   0.000000   0.000000   0.000002
    27  H   -0.000022  -0.000001   0.000000  -0.000000   0.000004   0.000000
    28  H    0.008000  -0.000359   0.000006   0.000000   0.000018   0.000000
    29  H   -0.016258  -0.033501  -0.000682  -0.000009  -0.000112   0.000002
    30  H    0.010790  -0.035871   0.375871  -0.037296   0.007721  -0.000313
    31  H    0.000146   0.007586  -0.041773   0.379575  -0.031104  -0.015649
    32  H   -0.000166  -0.000040   0.000299  -0.015798  -0.036238   0.379685
    33  H    0.000018   0.000001   0.000007  -0.000284   0.008037  -0.043483
    34  H    0.000000  -0.000000   0.000000  -0.000000  -0.000061   0.000910
    35  H   -0.027420  -0.004335   0.008404  -0.000078  -0.000028   0.000000
    36  H   -0.000000  -0.000000   0.000000   0.000000  -0.000000   0.000001
    37  H   -0.000067  -0.011068   0.004994   0.000645  -0.000030  -0.000000
    38  H   -0.000000   0.000004   0.000000   0.000000  -0.000000  -0.000000
    39  H   -0.000001   0.000032  -0.000036  -0.000001   0.000000   0.000000
    40  H    0.000000  -0.000030   0.000032   0.000003  -0.000000   0.000000
              13         14         15         16         17         18
     1  C   -0.122222   0.127523   0.014069   0.027924   0.199435   0.000000
     2  C    0.014497   0.010708  -0.113099  -0.003712  -0.110089   0.000000
     3  C   -0.003171  -0.118451   0.013088   0.022315   0.012376  -0.000000
     4  C    0.022250  -0.037981   0.127428  -0.029689  -0.001916   0.000002
     5  C    0.000089   0.020762   0.010303  -0.121391   0.000000  -0.000306
     6  C   -0.000079  -0.003975  -0.118291  -0.005175   0.000000  -0.021531
     7  C   -0.003868   0.027616  -0.034256   0.056995   0.000001  -0.066876
     8  C    0.000112  -0.000295   0.027226  -0.000110   0.000000   0.307395
     9  C   -0.000503   0.000065  -0.004267  -0.113128   0.000000  -0.093090
    10  C    0.008710  -0.001423   0.023159   0.009003  -0.000001   0.010240
    11  C    0.036778  -0.113434  -0.029270   0.127092  -0.000056  -0.001139
    12  C    0.376128   0.035312  -0.120838   0.010891   0.000081   0.000004
    13  C    5.170836   0.304555  -0.010882  -0.117796  -0.023710   0.000000
    14  C    0.304555   5.862589   0.045821  -0.035414  -0.066192   0.000000
    15  C   -0.010882   0.045821   6.139356  -0.032617   0.018595  -0.000195
    16  C   -0.117796  -0.035414  -0.032617   6.161853  -0.000318   0.016292
    17  C   -0.023710  -0.066192   0.018595  -0.000318   5.359412  -0.000000
    18  C    0.000000   0.000000  -0.000195   0.016292  -0.000000   5.167747
    19  C   -0.000128   0.011057  -0.000290   0.000000   0.311615  -0.000000
    20  C   -0.000000   0.000000   0.000001  -0.000056  -0.000000   0.505491
    21  O    0.000000  -0.000000   0.000000   0.000001  -0.000000  -0.045178
    22  C   -0.000000   0.000000   0.000000  -0.000000  -0.000000   0.005376
    23  N   -0.000020  -0.000049   0.000001  -0.000000  -0.026242  -0.000000
    24  O   -0.000000  -0.000000   0.000000   0.000000   0.010748   0.000000
[...]
    10  C    0.379576  -0.015799  -0.000284  -0.000000  -0.000077   0.000000
    11  C   -0.031100  -0.036242   0.008038  -0.000061  -0.000030  -0.000000
    12  C   -0.015657   0.379679  -0.043483   0.000911   0.000000   0.000001
    13  C    0.000395  -0.035386   0.378447   0.004182  -0.000000  -0.000003
    14  C   -0.000020   0.008514  -0.017511  -0.033305   0.000000  -0.000356
    15  C   -0.000336  -0.000257   0.012787  -0.000474   0.000049   0.000031
    16  C    0.011266   0.011216  -0.000812   0.000102  -0.000923   0.000000
    17  C   -0.000000   0.000040   0.012056   0.344449   0.000000  -0.027422
    18  C   -0.000314  -0.000001   0.000000   0.000000   0.349574  -0.000000
    19  C    0.000000  -0.000000   0.002071  -0.051244  -0.000000   0.384595
    20  C    0.000011  -0.000000  -0.000000  -0.000000  -0.040923   0.000000
    21  O   -0.000000  -0.000000   0.000000   0.000000   0.006281   0.000000
    22  C    0.000000   0.000000  -0.000000  -0.000000  -0.000471   0.000000
    23  N   -0.000000  -0.000000   0.000041  -0.014652   0.000000  -0.024472
    24  O   -0.000000   0.000000  -0.000002   0.001188   0.000000   0.011711
    25  O   -0.000000   0.000000  -0.000760   0.044712  -0.000000   0.004240
    26  H   -0.000000  -0.000000  -0.000024   0.000077   0.000000  -0.003023
    27  H    0.000000   0.000000   0.000001   0.000004   0.000000   0.000059
    28  H    0.000000   0.000000  -0.000000   0.000000   0.000074  -0.000000
    29  H    0.000000  -0.000000   0.000000   0.000000  -0.006538  -0.000000
    30  H   -0.011858  -0.000015  -0.000000   0.000000   0.000049   0.000000
    31  H    0.693591   0.004278  -0.000022   0.000000   0.000006   0.000000
    32  H    0.004278   0.691882  -0.013060   0.000095   0.000000   0.000000
    33  H   -0.000022  -0.013060   0.692762  -0.010905   0.000000  -0.000003
    34  H    0.000000   0.000095  -0.010905   0.635382   0.000000   0.006015
    35  H    0.000006   0.000000   0.000000   0.000000   0.668151   0.000000
    36  H    0.000000   0.000000  -0.000003   0.006015   0.000000   0.616905
    37  H    0.000047   0.000000  -0.000000   0.000000   0.010244   0.000000
    38  H    0.000000  -0.000000   0.000000   0.000000  -0.000050   0.000000
    39  H    0.000000  -0.000000  -0.000000  -0.000000   0.000056  -0.000000
    40  H   -0.000000   0.000000   0.000000   0.000000   0.000188   0.000000
              37         38         39         40
     1  C   -0.000000  -0.000000   0.000000  -0.000000
     2  C   -0.000000   0.000000  -0.000000  -0.000000
     3  C    0.000000   0.000000  -0.000000  -0.000000
     4  C   -0.000000  -0.000000   0.000000  -0.000000
     5  C    0.000001   0.000000   0.000000  -0.000000
     6  C   -0.000032   0.000000   0.000000  -0.000000
     7  C   -0.000075  -0.000000  -0.000001   0.000000
     8  C   -0.011103   0.000004   0.000032  -0.000030
     9  C    0.004988   0.000000  -0.000036   0.000032
    10  C    0.000650   0.000000  -0.000001   0.000003
    11  C   -0.000030  -0.000000   0.000000  -0.000000
    12  C   -0.000000  -0.000000   0.000000   0.000000
    13  C    0.000000  -0.000000  -0.000000   0.000000
    14  C    0.000000   0.000000   0.000000  -0.000000
    15  C    0.000000  -0.000000  -0.000000   0.000000
    16  C   -0.000012   0.000000  -0.000000   0.000000
    17  C    0.000000  -0.000000  -0.000000   0.000000
    18  C   -0.049104  -0.000254   0.000662   0.000727
    19  C    0.000000   0.000000  -0.000000   0.000000
    20  C    0.376764   0.004576  -0.002370  -0.003783
    21  O   -0.042052  -0.017872  -0.032338  -0.032372
    22  C   -0.008352   0.395859   0.382811   0.380906
    23  N   -0.000000   0.000000   0.000000   0.000000
    24  O    0.000000   0.000000   0.000000   0.000000
    25  O    0.000000   0.000000   0.000000   0.000000
    26  H    0.000000   0.000000   0.000000  -0.000000
    27  H    0.000000   0.000000   0.000000  -0.000000
    28  H    0.000000  -0.000000   0.000000   0.000000
    29  H   -0.000085   0.000000   0.000001  -0.000001
    30  H    0.000154  -0.000001  -0.000051   0.000159
    31  H    0.000047   0.000000   0.000000  -0.000000
    32  H    0.000000  -0.000000  -0.000000   0.000000
    33  H   -0.000000   0.000000  -0.000000   0.000000
    34  H    0.000000   0.000000  -0.000000   0.000000
    35  H    0.010244  -0.000050   0.000056   0.000188
    36  H    0.000000   0.000000  -0.000000   0.000000
    37  H    0.691317  -0.000022   0.003315   0.005354
    38  H   -0.000022   0.606749  -0.026931  -0.025977
    39  H    0.003315  -0.026931   0.673333  -0.042995
    40  H    0.005354  -0.025977  -0.042995   0.678402
 Mulliken charges:
               1
     1  C   -0.040163
     2  C   -0.005671
     3  C    0.058390
     4  C   -0.078509
     5  C    0.063740
     6  C   -0.002201
     7  C   -0.030982
     8  C   -0.049020
     9  C    0.012970
    10  C    0.030375
    11  C   -0.056527
    12  C    0.050683
    13  C    0.000946
    14  C   -0.037827
    15  C    0.012519
    16  C   -0.006554
    17  C    0.004486
    18  C   -0.079956
    19  C    0.107409
    20  C    0.164687
    21  O   -0.290438
    22  C    0.080881
    23  N    0.183418
    24  O   -0.228318
    25  O   -0.231143
    26  H    0.011440
    27  H    0.009350
    28  H    0.006155
    29  H    0.014680
    30  H    0.006527
    31  H    0.004182
    32  H    0.005306
    33  H    0.020840
    34  H    0.048701
    35  H    0.030671
    36  H    0.043103
    37  H    0.018033
    38  H    0.063918
    39  H    0.044513
    40  H    0.039388
 Sum of Mulliken charges =  -0.00000
 Mulliken charges with hydrogens summed into heavy atoms:
               1
     1  C   -0.040163
     2  C    0.005769
     3  C    0.067740
     4  C   -0.078509
     5  C    0.069896
     6  C    0.012479
     7  C   -0.030982
     8  C   -0.049020
     9  C    0.019496
    10  C    0.034556
    11  C   -0.056527
    12  C    0.055989
    13  C    0.021785
    14  C   -0.037827
    15  C    0.012519
    16  C   -0.006554
    17  C    0.053187
    18  C   -0.049286
    19  C    0.150513
    20  C    0.182719
    21  O   -0.290438
    22  C    0.228700
    23  N    0.183418
    24  O   -0.228318
    25  O   -0.231143
 Electronic spatial extent (au):  <R**2>=          13241.8594
 Charge=             -0.0000 electrons
 Dipole moment (field-independent basis, Debye):
    X=              7.3122    Y=              0.7250    Z=              0.7555  Tot=              7.3868
 Quadrupole moment (field-independent basis, Debye-Ang):
   XX=           -152.1083   YY=           -132.1724   ZZ=           -150.6335
   XY=            -16.6579   XZ=              7.2660   YZ=             -0.3143
 Traceless Quadrupole moment (field-independent basis, Debye-Ang):
   XX=             -7.1369   YY=             12.7990   ZZ=             -5.6621
   XY=            -16.6579   XZ=              7.2660   YZ=             -0.3143
 Octapole moment (field-independent basis, Debye-Ang**2):
  XXX=            631.5941  YYY=              8.0356  ZZZ=              6.4257  XYY=              4.8179
  XXY=             11.7420  XXZ=             44.0400  XZZ=            -17.2098  YZZ=             -3.0566
  YYZ=             -0.8904  XYZ=             -5.0490
 Hexadecapole moment (field-independent basis, Debye-Ang**3):
 XXXX=         -15593.1350 YYYY=          -1841.2349 ZZZZ=           -200.4016 XXXY=           -620.8432
 XXXZ=            462.8887 YYYX=            -17.9808 YYYZ=              1.6802 ZZZX=              6.9522
 ZZZY=             -3.3249 XXYY=          -2869.3366 XXZZ=          -2540.7140 YYZZ=           -402.1721
 XXYZ=             -5.4630 YYXZ=             -5.1810 ZZXY=             31.5470
 N-N= 1.906509203178D+03 E-N=-6.345736930430D+03  KE= 1.085169645957D+03
  Exact polarizability:     553.003     -23.546     263.567       0.071      -1.322      88.738
 Approx polarizability:     401.877     -33.331     278.935      -3.275      -1.638     109.955
 No NMR shielding tensors so no spin-rotation constants.
 Leave Link  601 at Sat Aug 16 14:58:24 2025, MaxMem=  1342177280 cpu:               4.9 elap:               0.4
 (Enter /opt/bwhpc/common/chem/gaussian/g16.C.01/x86_64-Intel-avx2-source/g16/l106.exe)
 NDeriv=      3 NFrqRd=  0 NDerD0=      0 MskFDP=       0 MskDFD=       0 MskDF0=       0
 Re-enter D2Numr:  atom      0 IXYZ=3 step-down number 1
 Max difference between analytic and numerical Dipole moment IMax=       2 EMax= 2.39D-04
 Max difference between off-diagonal Polarizability IMax=       1 JMax=       3 EMax= 5.44D-03
 Max difference between analytic and numerical Polarizability IMax=       1 EMax= 5.96D-02
 Max difference between off-diagonal HyperPolarizability IMax=       1 JMax=       1 KMax=       3 EMax= 1.08D+00
 Final packed hyperpolarizability:
 K=  1 block:
                1 
      1 -0.118259D+05
 K=  2 block:
                1             2 
      1 -0.183673D+03
      2 -0.310265D+03  0.798872D+02
 K=  3 block:
                1             2             3 
      1  0.136979D+03
      2 -0.793058D+00 -0.131935D+02
      3  0.599976D+02 -0.470561D+01  0.562020D+02
 FinFTb:  IFil= 1 IFilD=  777 LTop=  1 LFil=      5813 LTop1=  0 IMask=  1
 Leave Link  106 at Sat Aug 16 14:58:24 2025, MaxMem=  1342177280 cpu:               2.1 elap:               0.1
 (Enter /opt/bwhpc/common/chem/gaussian/g16.C.01/x86_64-Intel-avx2-source/g16/l9999.exe)

 ----------------------------------------------------------------------

 Electric dipole moment (input orientation):
 (Debye = 10**-18 statcoulomb cm , SI units = C m)
                  (au)            (Debye)         (10**-30 SI)
   Tot        0.290334D+01      0.737956D+01      0.246156D+02
   x          0.163397D+01      0.415315D+01      0.138534D+02
   y         -0.234661D+01     -0.596448D+01     -0.198954D+02
   z          0.502946D+00      0.127836D+01      0.426415D+01

 Dipole polarizability, Alpha (input orientation).
 (esu units = cm**3 , SI units = C**2 m**2 J**-1)
 Alpha(0;0):
               (au)            (10**-24 esu)      (10**-40 SI)
   iso        0.301789D+03      0.447205D+02      0.497583D+02
   aniso      0.408205D+03      0.604898D+02      0.673039D+02
   xx         0.311743D+03      0.461956D+02      0.513995D+02
   yx        -0.109802D+03     -0.162710D+02     -0.181039D+02
   yy         0.501952D+03      0.743816D+02      0.827606D+02
   zx         0.185828D+02      0.275369D+01      0.306389D+01
   zy        -0.313934D+02     -0.465203D+01     -0.517608D+01
   zz         0.916727D+02      0.135845D+02      0.151148D+02

 First dipole hyperpolarizability, Beta (input orientation).
 ||, _|_  parallel and perpendicular components, (z) with respect to z axis,
 vector components x,y,z.  Values do not include the 1/n! factor of 1/2.
 (esu units = statvolt**-1 cm**4 , SI units = C**3 m**3 J**-2)
 Beta(0;0,0):
               (au)            (10**-30 esu)      (10**-50 SI)
   || (z)    -0.472030D+03     -0.407797D+01     -0.151350D+01
   _|_(z)    -0.157343D+03     -0.135932D+01     -0.504499D+00
   x         -0.179579D+05     -0.155142D+03     -0.575795D+02
   y          0.313824D+05      0.271119D+03      0.100623D+03
   z         -0.236015D+04     -0.203898D+02     -0.756749D+01
   ||         0.724682D+04      0.626069D+02      0.232359D+02
   xxx       -0.177447D+04     -0.153300D+02     -0.568958D+01
   xxy        0.266743D+04      0.230446D+02      0.855276D+01
   yxy       -0.420340D+04     -0.363141D+02     -0.134776D+02
   yyy        0.779780D+04      0.673669D+02      0.250026D+02
   xxz       -0.242371D+03     -0.209389D+01     -0.777128D+00
   yxz        0.345374D+03      0.298376D+01      0.110739D+01
   yyz       -0.610350D+03     -0.527295D+01     -0.195700D+01
   zxz       -0.809461D+01     -0.699311D-01     -0.259542D-01
   zyz       -0.444381D+01     -0.383910D-01     -0.142484D-01
   zzz        0.660045D+02      0.570227D+00      0.211634D+00

 ----------------------------------------------------------------------

 Dipole orientation:
     6         -7.10268959         -2.82629159        -12.72733691
     6         -4.94093130         -1.31155911        -12.32264293
     6         -3.93345689         -0.94741923         -9.93986989
     6         -5.04050886         -2.09247891         -7.80191877
     6         -4.04298712         -1.72725007         -5.31471623
     6         -5.12581616         -2.84259661         -3.25316426
     6         -7.30317821         -4.44840831         -3.47481318
     6         -8.44487944         -5.63785274         -1.33290165
     6        -10.59570343         -7.16241851         -1.73866960
     6        -11.63249731         -7.50106958         -4.12216675
     6        -10.54777651         -6.35741513         -6.26437615
     6        -11.55790134         -6.70122646         -8.74940311
     6        -10.48070312         -5.59297264        -10.81677992
     6         -8.27656722         -4.01923728        -10.60043524
     6         -7.22652860         -3.64737469         -8.12073594
     6         -8.35325334         -4.81894699         -5.94940403
     6         -8.11181015         -3.15840012        -15.26511153
     6         -7.40748451         -5.30775720          1.21167594
     6         -7.18097470         -2.20309047        -17.43409040
     6         -8.72458888         -5.56210169          3.37980593
     8         -7.60669230         -5.31957034          5.65483925
     6         -9.20968562         -5.33900590          7.79520280
     7         -8.43187065         -2.71841056        -19.82476792
     8         -7.44422289         -1.77970647        -21.69868213
     8        -10.34614140         -4.02006917        -19.85431649
     1         -4.03731539         -0.39142039        -13.93278675
     1         -2.26252523          0.24174731         -9.69274279
     1         -2.38452600         -0.51612818         -5.08721311
     1         -4.31927955         -2.48509161         -1.39166042
     1        -11.43752701         -8.15773351         -0.13850892
     1        -13.29440918         -8.70647869         -4.35937718
     1        -13.23548476         -7.88703524         -8.97486787
     1        -11.32846044         -5.92257281        -12.66374454
     1         -9.81224697         -4.29637781        -15.52115759
     1         -5.41605395         -4.80608406          1.42179094
     1         -5.51613026         -1.02548192        -17.69347145
     1        -10.76055249         -5.96189123          3.40816652
     1         -7.99001415         -5.22420426          9.47046007
     1        -10.51135946         -3.70577505          7.79378272
     1        -10.33076365         -7.09880160          7.89702427

 Electric dipole moment (dipole orientation):
 (Debye = 10**-18 statcoulomb cm , SI units = C m)
                  (au)            (Debye)         (10**-30 SI)
   Tot        0.290334D+01      0.737956D+01      0.246156D+02
   x          0.000000D+00      0.000000D+00      0.000000D+00
   y          0.000000D+00      0.000000D+00      0.000000D+00
   z          0.290334D+01      0.737956D+01      0.246156D+02

 Dipole polarizability, Alpha (dipole orientation).
 (esu units = cm**3 , SI units = C**2 m**2 J**-1)
 Alpha(0;0):
               (au)            (10**-24 esu)      (10**-40 SI)
   iso        0.301789D+03      0.447205D+02      0.497583D+02
   aniso      0.408205D+03      0.604898D+02      0.673039D+02
   xx         0.206905D+03      0.306601D+02      0.341140D+02
   yx         0.856590D+02      0.126934D+02      0.141233D+02
   yy         0.156762D+03      0.232298D+02      0.258466D+02
   zx        -0.172441D+02     -0.255531D+01     -0.284317D+01
   zy        -0.641283D+02     -0.950283D+01     -0.105733D+02
   zz         0.541700D+03      0.802717D+02      0.893143D+02

 First dipole hyperpolarizability, Beta (dipole orientation).
 ||, _|_  parallel and perpendicular components, (z) with respect to z axis,
 vector components x,y,z.  Values do not include the 1/n! factor of 1/2.
 (esu units = statvolt**-1 cm**4 , SI units = C**3 m**3 J**-2)
 Beta(0;0,0):
               (au)            (10**-30 esu)      (10**-50 SI)
   || (z)    -0.717600D+04     -0.619950D+02     -0.230088D+02
   _|_(z)    -0.239200D+04     -0.206650D+02     -0.766962D+01
   x          0.385642D+03      0.333164D+01      0.123651D+01
   y          0.503855D+04      0.435291D+02      0.161554D+02
   z         -0.358800D+05     -0.309975D+03     -0.115044D+03
   ||         0.724682D+04      0.626069D+02      0.232359D+02
   xxx        0.576389D+02      0.497956D+00      0.184811D+00
   xxy        0.815134D+02      0.704212D+00      0.261361D+00
   yxy        0.416803D+02      0.360086D+00      0.133642D+00
   yyy        0.818040D+02      0.706723D+00      0.262293D+00
   xxz       -0.169462D+03     -0.146402D+01     -0.543357D+00
   yxz       -0.178650D+03     -0.154340D+01     -0.572817D+00
   yyz       -0.262234D+03     -0.226550D+01     -0.840817D+00
   zxz        0.292280D+02      0.252507D+00      0.937155D-01
   zyz        0.151620D+04      0.130988D+02      0.486148D+01
   zzz       -0.115283D+05     -0.995955D+02     -0.369639D+02

 ----------------------------------------------------------------------
 Unable to Open any file for archive entry.
 1\1\GINC-N1532\SP\RMP2-FC\CC-pVDZ\C21H15N1O3\KA_PR7831\16-Aug-2025\0\\
 #P mp2/cc-pvdz polar=Cubic\\p\\0,1\C,0,-7.1141541,3.3234504,-0.2602295
 \C,0,-5.8477331,3.9491319,-0.21908\C,0,-4.6741915,3.2221117,-0.1449505
 \C,0,-4.7000768,1.8120201,-0.1090151\C,0,-3.4990559,1.0385484,-0.02188
 28\C,0,-3.5322402,-0.3269286,0.0125436\C,0,-4.7688619,-1.0554614,-0.04
 61342\C,0,-4.8160596,-2.4847653,-0.0185002\C,0,-6.0805938,-3.1100503,-
 0.0672103\C,0,-7.2604482,-2.3827579,-0.1217727\C,0,-7.2447463,-0.97575
 62,-0.1520489\C,0,-8.4455939,-0.2007777,-0.226068\C,0,-8.4177748,1.164
 3719,-0.262385\C,0,-7.1789706,1.8931436,-0.2258863\C,0,-5.9585351,1.13
 52116,-0.1522449\C,0,-5.9875185,-0.2994113,-0.1187302\C,0,-8.3279218,4
 .12394,-0.3343777\C,0,-3.589756,-3.2828357,0.0469901\C,0,-8.4182829,5.
 4666465,-0.4018342\C,0,-3.5050551,-4.5400316,0.5292116\O,0,-2.3458922,
 -5.2268369,0.5085667\C,0,-2.3317088,-6.4757188,1.1738567\N,0,-9.719233
 6,6.1116492,-0.4688539\O,0,-9.7031791,7.3359168,-0.5332839\O,0,-10.734
 606,5.4262648,-0.4581872\H,0,-5.7893955,5.0389891,-0.2422448\H,0,-3.71
 11064,3.738129,-0.111315\H,0,-2.5421282,1.5655496,0.0230581\H,0,-2.592
 9278,-0.8737816,0.0958934\H,0,-6.1334568,-4.200591,-0.0955166\H,0,-8.2
 204279,-2.9049754,-0.1641324\H,0,-9.4041084,-0.7266373,-0.2543006\H,0,
 -9.3629563,1.7030938,-0.3201908\H,0,-9.2945592,3.6176892,-0.33815\H,0,
 -2.6549304,-2.84647,-0.3122608\H,0,-7.6107669,6.1953399,-0.4177605\H,0
 ,-4.3651596,-5.0636363,0.9671621\H,0,-1.3380573,-6.9150729,1.01329\H,0
 ,-2.4999055,-6.3591307,2.2599255\H,0,-3.0955279,-7.1620006,0.7643934\\
 Version=ES64L-G16RevC.01\State=1-A\HF=-1082.9510025\MP2=-1086.4119602\
 RMSD=4.990e-09\Dipole=1.6339736,-2.3466088,0.5029459\Polar=311.7431916
 ,-109.8018569,501.9516101,18.5828256,-31.3934275,91.6726889\HyperPolar
 =-1774.4666212,2667.4339091,-4203.4045986,7797.8002963,-242.3705591,34
 5.3735933,-610.3500903,-8.0946103,-4.4438053,66.0044793\DQPolar=50.613
 2949,-1.6775358,-48.935759,-81.4494457,17.6836325,-55.5238901,43.82171
 25,-108.7104358,64.8887233,101.5925539,-77.1012013,114.2203595,-63.635
 7363,82.1983958,-18.5626595,-77.7150013,103.0927698,-185.4152773\Quadr
 upole=-4.8252006,8.2282334,-3.4030328,13.2056463,1.5954769,-4.7136029\
 PG=C01 [X(C21H15N1O3)]\\@
 The archive entry for this job was punched.


 VIRTUE IS LEARNED AT YOUR MOTHER'S KNEE,
 VICES ARE PICKED UP AT SOME OTHER JOINT.
 Job cpu time:      13 days 13 hours 20 minutes 47.8 seconds.
 Elapsed time:       0 days 20 hours 24 minutes 14.6 seconds.
 File lengths (MBytes):  RWF= 240113 Int=      0 D2E=      0 Chk=     64 Scr=      1
 Normal termination of Gaussian 16 at Sat Aug 16 14:58:41 2025.
