 Entering Gaussian System, Link 0=g16
 Initial command:
 /opt/bwhpc/common/chem/gaussian/g16.C.01/x86_64-Intel-avx2-source/g16/l1.exe "/tmp/ka_pr7831.18328148/g16.18328148.250807_173905/Gau-2679525.inp" -scrdir="/tmp/ka_pr7831.18328148/g16.18328148.250807_173905/"
 Entering Link 1 = /opt/bwhpc/common/chem/gaussian/g16.C.01/x86_64-Intel-avx2-source/g16/l1.exe PID=   2679527.
  
 Copyright (c) 1988-2019, Gaussian, Inc.  All Rights Reserved.
  
 This is part of the Gaussian(R) 16 program.  It is based on
 the Gaussian(R) 09 system (copyright 2009, Gaussian, Inc.),
 the Gaussian(R) 03 system (copyright 2003, Gaussian, Inc.),
 the Gaussian(R) 98 system (copyright 1998, Gaussian, Inc.),
 the Gaussian(R) 94 system (copyright 1995, Gaussian, Inc.),
 the Gaussian 92(TM) system (copyright 1992, Gaussian, Inc.),
 the Gaussian 90(TM) system (copyright 1990, Gaussian, Inc.),
 the Gaussian 88(TM) system (copyright 1988, Gaussian, Inc.),
 the Gaussian 86(TM) system (copyright 1986, Carnegie Mellon
 University), and the Gaussian 82(TM) system (copyright 1983,
 Carnegie Mellon University). Gaussian is a federally registered
 trademark of Gaussian, Inc.
  
 This software contains proprietary and confidential information,
 including trade secrets, belonging to Gaussian, Inc.
  
 This software is provided under written license and may be
 used, copied, transmitted, or stored only in accord with that
 written license.
  
 The following legend is applicable only to US Government
 contracts under FAR:
  
                    RESTRICTED RIGHTS LEGEND
  
 Use, reproduction and disclosure by the US Government is
 subject to restrictions as set forth in subparagraphs (a)
 and (c) of the Commercial Computer Software - Restricted
 Rights clause in FAR 52.227-19.
  
 Gaussian, Inc.
 340 Quinnipiac St., Bldg. 40, Wallingford CT 06492
  
  
 ---------------------------------------------------------------
 Warning -- This program may not be used in any manner that
 competes with the business of Gaussian, Inc. or will provide
 assistance to any competitor of Gaussian, Inc.  The licensee
 of this program is prohibited from giving any competitor of
 Gaussian, Inc. access to this program.  By using this program,
 the user acknowledges that Gaussian, Inc. is engaged in the
 business of creating and licensing software in the field of
 computational chemistry and represents and warrants to the
 licensee that it is not a competitor of Gaussian, Inc. and that
 it will not use this program in any manner prohibited above.
 ---------------------------------------------------------------
  

 Cite this work as:
 Gaussian 16, Revision C.01,
 M. J. Frisch, G. W. Trucks, H. B. Schlegel, G. E. Scuseria, 
 M. A. Robb, J. R. Cheeseman, G. Scalmani, V. Barone, 
 G. A. Petersson, H. Nakatsuji, X. Li, M. Caricato, A. V. Marenich, 
 J. Bloino, B. G. Janesko, R. Gomperts, B. Mennucci, H. P. Hratchian, 
 J. V. Ortiz, A. F. Izmaylov, J. L. Sonnenberg, D. Williams-Young, 
 F. Ding, F. Lipparini, F. Egidi, J. Goings, B. Peng, A. Petrone, 
 T. Henderson, D. Ranasinghe, V. G. Zakrzewski, J. Gao, N. Rega, 
 G. Zheng, W. Liang, M. Hada, M. Ehara, K. Toyota, R. Fukuda, 
 J. Hasegawa, M. Ishida, T. Nakajima, Y. Honda, O. Kitao, H. Nakai, 
 T. Vreven, K. Throssell, J. A. Montgomery, Jr., J. E. Peralta, 
 F. Ogliaro, M. J. Bearpark, J. J. Heyd, E. N. Brothers, K. N. Kudin, 
 V. N. Staroverov, T. A. Keith, R. Kobayashi, J. Normand, 
 K. Raghavachari, A. P. Rendell, J. C. Burant, S. S. Iyengar, 
 J. Tomasi, M. Cossi, J. M. Millam, M. Klene, C. Adamo, R. Cammi, 
 J. W. Ochterski, R. L. Martin, K. Morokuma, O. Farkas, 
 J. B. Foresman, and D. J. Fox, Gaussian, Inc., Wallingford CT, 2019.
 
 ******************************************
 Gaussian 16:  ES64L-G16RevC.01  3-Jul-2019
                 7-Aug-2025 
 ******************************************
 %chk=beta.chk
 %mem=10GB
 %nprocs=8
 Will use up to    8 processors via shared memory.
 ----------------------
 #P b3lyp/cc-pvdz polar
 ----------------------
 1/38=1,172=1/1;
 2/12=2,17=6,18=5,40=1/2;
 3/5=16,11=2,25=1,30=1,74=-5/1,2,3;
 4//1;
 5/5=2,38=5,98=1/2;
 8/6=4,10=90,11=11/1;
 10/6=1,13=10/2;
 6/7=2,8=2,9=2,10=2,28=1/1;
 99/5=1,9=1/99;
 Leave Link    1 at Thu Aug  7 17:39:07 2025, MaxMem=  1342177280 cpu:               0.2 elap:               0.0
 (Enter /opt/bwhpc/common/chem/gaussian/g16.C.01/x86_64-Intel-avx2-source/g16/l101.exe)
 --
 p1
 --
 Symbolic Z-matrix:
 Charge =  0 Multiplicity = 1
 C                    -1.78119   3.70635  -0.12212 
 C                    -0.52158   4.34491  -0.18699 
 C                     0.66215   3.63214  -0.16634 
 C                     0.6547    2.22324  -0.07569 
 C                     1.86617   1.46307  -0.06548 
 C                     1.84975   0.0989    0.0255 
 C                     0.62449  -0.64152   0.12484 
 C                     0.6001   -2.07139   0.23452 
 C                    -0.66359  -2.70356   0.29938 
 C                    -1.8512   -1.99174   0.2487 
 C                    -1.85503  -0.58665   0.15245 
 C                    -3.0657    0.17272   0.12327 
 C                    -3.057     1.53691   0.03815 
 C                    -1.82753   2.27704  -0.0294 
 C                    -0.59548   1.53329  -0.00271 
 C                    -0.60486   0.1007    0.09353 
 C                    -3.00536   4.49072  -0.15072 
 C                     1.83256  -2.85181   0.29164 
 C                    -3.11957   5.83204  -0.22823 
 C                     1.92174  -4.17668  -0.02224 
 N                     3.01829  -4.98527   0.10869 
 C                     3.0879   -6.22809  -0.63539 
 C                     4.26033  -4.44758   0.62004 
 N                    -4.43072   6.45566  -0.24669 
 O                    -4.43789   7.68039  -0.31586 
 O                    -5.43488   5.75503  -0.19418 
 H                    -0.47812   5.43349  -0.25805 
 H                     1.61945   4.15705  -0.22184 
 H                     2.81719   1.99747  -0.14043 
 H                     2.79838  -0.4381    0.0085 
 H                    -0.70934  -3.78679   0.43023 
 H                    -2.80592  -2.52212   0.30949 
 H                    -4.01802  -0.36311   0.17159 
 H                    -4.01029   2.06409   0.02045 
 H                    -3.96372   3.97086  -0.10622 
 H                     2.73941  -2.33161   0.60001 
 H                    -2.32484   6.5728   -0.28222 
 H                     1.04701  -4.69695  -0.42561 
 H                     2.07271  -6.60285  -0.83301 
 H                     3.60312  -6.11468  -1.61081 
 H                     3.62775  -6.99423  -0.05477 
 H                     4.95169  -5.27164   0.84914 
 H                     4.76004  -3.76752  -0.09973 
 H                     4.07869  -3.88285   1.54848 
 
 ITRead=  0  0  0  0  0  0  0  0  0  0  0  0  0  0  0  0  0  0  0  0
 ITRead=  0  0  0  0  0  0  0  0  0  0  0  0  0  0  0  0  0  0  0  0
 ITRead=  0  0  0  0
 MicOpt= -1 -1 -1 -1 -1 -1 -1 -1 -1 -1 -1 -1 -1 -1 -1 -1 -1 -1 -1 -1
 MicOpt= -1 -1 -1 -1 -1 -1 -1 -1 -1 -1 -1 -1 -1 -1 -1 -1 -1 -1 -1 -1
 MicOpt= -1 -1 -1 -1
 NAtoms=     44 NQM=       44 NQMF=       0 NMMI=      0 NMMIF=      0
                NMic=       0 NMicF=      0.
                    Isotopes and Nuclear Properties:
 (Nuclear quadrupole moments (NQMom) in fm**2, nuclear magnetic moments (NMagM)
  in nuclear magnetons)

  Atom         1           2           3           4           5           6           7           8           9          10
 IAtWgt=          12          12          12          12          12          12          12          12          12          12
 AtmWgt=  12.0000000  12.0000000  12.0000000  12.0000000  12.0000000  12.0000000  12.0000000  12.0000000  12.0000000  12.0000000
 NucSpn=           0           0           0           0           0           0           0           0           0           0
 AtZEff=  -0.0000000  -0.0000000  -0.0000000  -0.0000000  -0.0000000  -0.0000000  -0.0000000  -0.0000000  -0.0000000  -0.0000000
 NQMom=    0.0000000   0.0000000   0.0000000   0.0000000   0.0000000   0.0000000   0.0000000   0.0000000   0.0000000   0.0000000
 NMagM=    0.0000000   0.0000000   0.0000000   0.0000000   0.0000000   0.0000000   0.0000000   0.0000000   0.0000000   0.0000000
 AtZNuc=   6.0000000   6.0000000   6.0000000   6.0000000   6.0000000   6.0000000   6.0000000   6.0000000   6.0000000   6.0000000

  Atom        11          12          13          14          15          16          17          18          19          20
 IAtWgt=          12          12          12          12          12          12          12          12          12          12
 AtmWgt=  12.0000000  12.0000000  12.0000000  12.0000000  12.0000000  12.0000000  12.0000000  12.0000000  12.0000000  12.0000000
 NucSpn=           0           0           0           0           0           0           0           0           0           0
 AtZEff=  -0.0000000  -0.0000000  -0.0000000  -0.0000000  -0.0000000  -0.0000000  -0.0000000  -0.0000000  -0.0000000  -0.0000000
 NQMom=    0.0000000   0.0000000   0.0000000   0.0000000   0.0000000   0.0000000   0.0000000   0.0000000   0.0000000   0.0000000
 NMagM=    0.0000000   0.0000000   0.0000000   0.0000000   0.0000000   0.0000000   0.0000000   0.0000000   0.0000000   0.0000000
 AtZNuc=   6.0000000   6.0000000   6.0000000   6.0000000   6.0000000   6.0000000   6.0000000   6.0000000   6.0000000   6.0000000

  Atom        21          22          23          24          25          26          27          28          29          30
 IAtWgt=          14          12          12          14          16          16           1           1           1           1
 AtmWgt=  14.0030740  12.0000000  12.0000000  14.0030740  15.9949146  15.9949146   1.0078250   1.0078250   1.0078250   1.0078250
 NucSpn=           2           0           0           2           0           0           1           1           1           1
 AtZEff=  -0.0000000  -0.0000000  -0.0000000  -0.0000000  -0.0000000  -0.0000000  -0.0000000  -0.0000000  -0.0000000  -0.0000000
 NQMom=    2.0440000   0.0000000   0.0000000   2.0440000   0.0000000   0.0000000   0.0000000   0.0000000   0.0000000   0.0000000
 NMagM=    0.4037610   0.0000000   0.0000000   0.4037610   0.0000000   0.0000000   2.7928460   2.7928460   2.7928460   2.7928460
 AtZNuc=   7.0000000   6.0000000   6.0000000   7.0000000   8.0000000   8.0000000   1.0000000   1.0000000   1.0000000   1.0000000

  Atom        31          32          33          34          35          36          37          38          39          40
 IAtWgt=           1           1           1           1           1           1           1           1           1           1
 AtmWgt=   1.0078250   1.0078250   1.0078250   1.0078250   1.0078250   1.0078250   1.0078250   1.0078250   1.0078250   1.0078250
 NucSpn=           1           1           1           1           1           1           1           1           1           1
 AtZEff=  -0.0000000  -0.0000000  -0.0000000  -0.0000000  -0.0000000  -0.0000000  -0.0000000  -0.0000000  -0.0000000  -0.0000000
 NQMom=    0.0000000   0.0000000   0.0000000   0.0000000   0.0000000   0.0000000   0.0000000   0.0000000   0.0000000   0.0000000
 NMagM=    2.7928460   2.7928460   2.7928460   2.7928460   2.7928460   2.7928460   2.7928460   2.7928460   2.7928460   2.7928460
 AtZNuc=   1.0000000   1.0000000   1.0000000   1.0000000   1.0000000   1.0000000   1.0000000   1.0000000   1.0000000   1.0000000

  Atom        41          42          43          44
 IAtWgt=           1           1           1           1
 AtmWgt=   1.0078250   1.0078250   1.0078250   1.0078250
 NucSpn=           1           1           1           1
 AtZEff=  -0.0000000  -0.0000000  -0.0000000  -0.0000000
 NQMom=    0.0000000   0.0000000   0.0000000   0.0000000
 NMagM=    2.7928460   2.7928460   2.7928460   2.7928460
 AtZNuc=   1.0000000   1.0000000   1.0000000   1.0000000
 Leave Link  101 at Thu Aug  7 17:39:08 2025, MaxMem=  1342177280 cpu:               2.2 elap:               0.3
 (Enter /opt/bwhpc/common/chem/gaussian/g16.C.01/x86_64-Intel-avx2-source/g16/l202.exe)
                          Input orientation:                          
 ---------------------------------------------------------------------
 Center     Atomic      Atomic             Coordinates (Angstroms)
 Number     Number       Type             X           Y           Z
 ---------------------------------------------------------------------
      1          6           0       -1.781185    3.706351   -0.122116
      2          6           0       -0.521579    4.344912   -0.186991
      3          6           0        0.662149    3.632140   -0.166344
      4          6           0        0.654697    2.223239   -0.075691
      5          6           0        1.866173    1.463071   -0.065476
      6          6           0        1.849747    0.098903    0.025498
      7          6           0        0.624489   -0.641519    0.124843
      8          6           0        0.600098   -2.071389    0.234519
      9          6           0       -0.663592   -2.703559    0.299384
     10          6           0       -1.851199   -1.991745    0.248701
     11          6           0       -1.855034   -0.586655    0.152447
     12          6           0       -3.065702    0.172725    0.123268
     13          6           0       -3.056996    1.536910    0.038146
     14          6           0       -1.827525    2.277040   -0.029400
     15          6           0       -0.595476    1.533293   -0.002714
     16          6           0       -0.604864    0.100695    0.093531
     17          6           0       -3.005357    4.490721   -0.150715
     18          6           0        1.832563   -2.851811    0.291638
     19          6           0       -3.119573    5.832043   -0.228233
     20          6           0        1.921736   -4.176685   -0.022240
     21          7           0        3.018285   -4.985275    0.108690
     22          6           0        3.087895   -6.228088   -0.635387
     23          6           0        4.260329   -4.447576    0.620037
     24          7           0       -4.430720    6.455656   -0.246690
     25          8           0       -4.437889    7.680393   -0.315858
     26          8           0       -5.434878    5.755028   -0.194180
     27          1           0       -0.478125    5.433491   -0.258055
     28          1           0        1.619451    4.157050   -0.221841
     29          1           0        2.817195    1.997467   -0.140427
     30          1           0        2.798380   -0.438103    0.008503
     31          1           0       -0.709345   -3.786791    0.430227
     32          1           0       -2.805921   -2.522116    0.309487
     33          1           0       -4.018022   -0.363106    0.171589
     34          1           0       -4.010294    2.064087    0.020445
     35          1           0       -3.963721    3.970861   -0.106225
     36          1           0        2.739414   -2.331605    0.600012
     37          1           0       -2.324841    6.572803   -0.282216
     38          1           0        1.047012   -4.696955   -0.425614
     39          1           0        2.072714   -6.602852   -0.833014
     40          1           0        3.603124   -6.114678   -1.610813
     41          1           0        3.627750   -6.994232   -0.054769
     42          1           0        4.951691   -5.271636    0.849137
     43          1           0        4.760043   -3.767519   -0.099733
     44          1           0        4.078687   -3.882848    1.548483
 ---------------------------------------------------------------------
                    Distance matrix (angstroms):
                    1          2          3          4          5
     1  C    0.000000
     2  C    1.413711   0.000000
     3  C    2.444861   1.381913   0.000000
     4  C    2.852244   2.428479   1.411834   0.000000
     5  C    4.282375   3.744481   2.482884   1.430257   0.000000
     6  C    5.120463   4.867950   3.732419   2.439506   1.367296
     7  C    4.975161   5.125935   4.283733   2.871927   2.450978
     8  C    6.259391   6.527231   5.717935   4.306163   3.766344
     9  C    6.520247   7.066660   6.489652   5.113894   4.888112
    10  C    5.710578   6.489294   6.173918   4.914350   5.084615
    11  C    4.302410   5.119929   4.923014   3.774427   4.253969
    12  C    3.767852   4.896527   5.093948   4.252712   5.101373
    13  C    2.521875   3.789974   4.273622   3.776330   4.924813
    14  C    1.433064   2.450801   2.837874   2.483237   3.782493
    15  C    2.478376   2.818621   2.452255   1.429785   2.463450
    16  C    3.798814   4.254293   3.760846   2.473929   2.826195
    17  C    1.454184   2.488318   3.766697   4.306169   5.736352
    18  C    7.499324   7.587087   6.604637   5.222876   4.329765
    19  C    2.514182   2.993800   4.375481   5.224160   6.631145
    20  C    8.709986   8.866485   7.911073   6.524360   5.640195
    21  N    9.931392   9.983509   8.937945   7.588361   6.552774
    22  C   11.075399  11.181131  10.165055   8.812414   7.808414
    23  C   10.175323  10.041204   8.879589   7.614748   6.413864
    24  N    3.820239   4.442993   5.823745   6.618463   8.038010
    25  O    4.784205   5.145826   6.513148   7.468108   8.857708
    26  O    4.189480   5.111652   6.456095   7.040632   8.470113
    27  H    2.167824   1.091761   2.133893   3.409143   4.614874
    28  H    3.431821   2.149538   1.093177   2.166041   2.709769
    29  H    4.905682   4.081676   2.705005   2.175215   1.093453
    30  H    6.177862   5.825597   4.600102   3.418364   2.118713
    31  H    7.589538   8.157255   7.568185   6.183609   5.868565
    32  H    6.326939   7.254018   7.080169   5.885799   6.152298
    33  H    4.652975   5.875298   6.162807   5.346460   6.165620
    34  H    2.772414   4.173288   4.932080   4.668695   5.907747
    35  H    2.198563   3.463348   4.638644   4.938107   6.346522
    36  H    7.577216   7.471903   6.361493   5.054624   3.950315
    37  H    2.921942   2.867808   4.193213   5.276268   6.612182
    38  H    8.871661   9.180021   8.342012   6.940133   6.224680
    39  H   11.028943  11.269483  10.353222   8.971298   8.104991
    40  H   11.298656  11.333291  10.282815   8.976118   7.926370
    41  H   11.990146  12.075206  11.032997   9.685105   8.638821
    42  H   11.264067  11.113426   9.935220   8.688649   7.464128
    43  H    9.932114   9.680634   8.458849   7.262481   5.977853
    44  H    9.732674   9.584902   8.431394   7.186512   6.006573
                    6          7          8          9         10
     6  C    0.000000
     7  C    1.435044   0.000000
     8  C    2.513062   1.434278   0.000000
     9  C    3.774346   2.437546   1.414482   0.000000
    10  C    4.256481   2.822673   2.452632   1.385518   0.000000
    11  C    3.769816   2.480284   2.870339   2.433600   1.408388
    12  C    4.916976   3.778956   4.299594   3.751554   2.485091
    13  C    5.113135   4.278598   5.141276   4.876290   3.734927
    14  C    4.274299   3.814990   4.987168   5.125350   4.277900
    15  C    2.835028   2.496876   3.805181   4.248155   3.750459
    16  C    2.455555   1.436374   2.487923   2.812413   2.440437
    17  C    6.549133   6.292185   7.497266   7.579190   6.596512
    18  C    2.962742   2.524412   1.459894   2.500566   3.783076
    19  C    7.591273   7.486633   8.747247   8.897569   7.940271
    20  C    4.276460   3.768539   2.498985   2.992902   4.368342
    21  N    5.217400   4.959711   3.788693   4.335759   5.717753
    22  C    6.480787   6.152729   4.921790   5.231611   6.566801
    23  C    5.180236   5.286834   4.380888   5.233489   6.596951
    24  N    8.940171   8.721413   9.912173   9.918703   8.846350
    25  O    9.855449   9.750697  10.990062  11.065726  10.027958
    26  O    9.225279   8.816661   9.892296   9.724016   8.547011
    27  H    5.827282   6.186123   7.597922   8.158231   7.568108
    28  H    4.072194   4.912881   6.327779   7.249270   7.076333
    29  H    2.137295   3.441303   4.648837   5.865915   6.152977
    30  H    1.090215   2.186485   2.747935   4.147548   4.908165
    31  H    4.670265   3.430030   2.166921   1.092064   2.135175
    32  H    5.350293   3.916433   3.436530   2.150022   1.093838
    33  H    5.887743   4.651087   4.924350   4.092219   2.711740
    34  H    6.180782   5.367720   6.197072   5.831696   4.600387
    35  H    6.986116   6.509924   7.579798   7.456759   6.335723
    36  H    2.651216   2.748651   2.185857   3.436449   4.616563
    37  H    7.709297   7.804530   9.140259   9.441870   8.594050
    38  H    4.883456   4.114377   2.743922   2.724961   4.021504
    39  H    6.760198   6.209053   4.882866   4.896343   6.150570
    40  H    6.660363   6.468404   5.363917   5.787007   7.085620
    41  H    7.313023   7.029140   5.786601   6.078726   7.425352
    42  H    6.256446   6.378656   5.436515   6.199084   7.576115
    43  H    4.840942   5.188942   4.504856   5.541401   6.854437
    44  H    4.810613   4.946155   4.136238   5.043826   6.358400
                   11         12         13         14         15
    11  C    0.000000
    12  C    1.429414   0.000000
    13  C    2.442806   1.366866   0.000000
    14  C    2.869595   2.446330   1.436647   0.000000
    15  C    2.470777   2.822948   2.461862   1.439381   0.000000
    16  C    1.427882   2.462071   2.842310   2.499298   1.435858
    17  C    5.214872   4.327101   2.960293   2.510455   3.817828
    18  C    4.329975   5.759268   6.575174   6.309075   5.021070
    19  C    6.553141   5.670480   4.303841   3.787739   4.990109
    20  C    5.213715   6.619144   7.578692   7.463751   6.240239
    21  N    6.564984   7.976219   8.913636   8.731676   7.454086
    22  C    7.541817   8.911381   9.925146   9.842042   8.614321
    23  C    7.247277   8.675522   9.470792   9.094185   7.729000
    24  N    7.509168   6.440137   5.114911   4.927947   6.244860
    25  O    8.673784   7.644659   6.306708   6.007685   7.255966
    26  O    7.290567   6.072552   4.847765   5.013636   6.424914
    27  H    6.189228   5.875085   4.682057   3.440399   3.910309
    28  H    5.891933   6.159919   5.366738   3.931045   3.440642
    29  H    5.347260   6.165038   5.894923   4.654451   3.446845
    30  H    4.658010   5.896926   6.179562   5.363995   3.924893
    31  H    3.410372   4.617836   5.831550   6.183173   5.338885
    32  H    2.162141   2.713730   4.075825   4.909582   4.629241
    33  H    2.174593   1.093784   2.133410   3.436429   3.916699
    34  H    3.418918   2.116620   1.089499   2.193699   3.455903
    35  H    5.028361   3.909596   2.601367   2.727318   4.159030
    36  H    4.934990   6.340215   6.991385   6.518643   5.140253
    37  H    7.188010   6.455563   5.098912   4.331838   5.335306
    38  H    5.064642   6.397614   7.477902   7.553579   6.456980
    39  H    7.252101   8.557233   9.660671   9.731914   8.602644
    40  H    7.966155   9.328007  10.277308  10.119968   8.871622
    41  H    8.435693   9.808122  10.838581  10.757191   9.516145
    42  H    8.292523   9.718360  10.542915  10.183914   8.820644
    43  H    7.344436   8.764561   9.447860   8.940788   7.535887
    44  H    6.929853   8.337938   9.086961   8.678553   7.320423
                   16         17         18         19         20
    16  C    0.000000
    17  C    5.009426   0.000000
    18  C    3.833743   8.804199   0.000000
    19  C    6.267028   1.348407  10.010157   0.000000
    20  C    4.969214   9.970791   1.364464  11.208562   0.000000
    21  N    6.244560  11.231476   2.447667  12.441913   1.368715
    22  C    7.363511  12.339185   3.719473  13.570011   2.438059
    23  C    6.680874  11.544583   2.923757  12.682787   2.440270
    24  N    7.425526   2.429370  11.231538   1.452011  12.387523
    25  O    8.503617   3.500490  12.272528   2.272010  13.458133
    26  O    7.441995   2.739149  11.275167   2.316835  12.360755
    27  H    5.345876   2.699488   8.619029   2.671513   9.908099
    28  H    4.636922   4.637374   7.030875   5.026330   8.341604
    29  H    3.919562   6.333919   4.967059   7.068020   6.239869
    30  H    3.446680   7.615906   2.615139   8.625135   3.840110
    31  H    3.903438   8.609667   2.711953   9.938045   2.698023
    32  H    3.430805   7.030750   4.650220   8.377320   5.019799
    33  H    3.445410   4.968803   6.359041   6.272714   7.061280
    34  H    3.931565   2.632061   7.640588   3.879783   8.610345
    35  H    5.128353   1.091190   8.961253   2.047308  10.051277
    36  H    4.166150   8.950425   1.089994  10.082603   2.111898
    37  H    6.707286   2.194416  10.316815   1.087768  11.560817
    38  H    5.100554  10.045429   2.129812  11.325158   1.094776
    39  H    7.277737  12.219644   3.923369  13.488967   2.562506
    40  H    7.696936  12.580874   4.171392  13.777893   3.017690
    41  H    8.262869  13.263162   4.527952  14.493785   3.293951
    42  H    7.765834  12.633998   3.986893  13.769449   3.337490
    43  H    6.616847  11.335897   3.092221  12.420002   2.868694
    44  H    6.318319  11.098991   2.772683  12.220916   2.684390
                   21         22         23         24         25
    21  N    0.000000
    22  C    1.450200   0.000000
    23  C    1.446813   2.474048   0.000000
    24  N   13.656824  14.749848  13.970182   0.000000
    25  O   14.703534  15.817249  14.954013   1.226710   0.000000
    26  O   13.671203  14.711472  14.097982   1.225549   2.171594
    27  H   10.995911  12.200463  10.993610   4.082641   4.553201
    28  H    9.254625  10.496592   9.040054   6.472153   7.008148
    29  H    6.990077   8.244878   6.648272   8.509935   9.217519
    30  H    4.553588   5.832867   4.311280   9.992443  10.880201
    31  H    3.928737   4.638372   5.017003  10.918542  12.081183
    32  H    6.326835   7.025958   7.330465   9.140552  10.351114
    33  H    8.418908   9.248961   9.242028   6.844033   8.069186
    34  H    9.955010  10.935016  10.543456   4.419728   5.642591
    35  H   11.358123  12.410635  11.791205   2.532197   3.745585
    36  H    2.713140   4.102466   2.605938  11.372936  12.352838
    37  H   12.739347  13.902707  12.869626   2.109433   2.385971
    38  H    2.062651   2.559996   3.388360  12.426515  13.538646
    39  H    2.097014   1.100044   3.397386  14.600104  15.705619
    40  H    2.138756   1.108954   2.861440  14.980546  16.019950
    41  H    2.105725   1.102514   2.709424  15.680409  16.747158
    42  H    2.090053   2.567556   1.099792  15.058546  16.039840
    43  H    2.135436   3.022814   1.109171  13.747909  14.686842
    44  H    2.100667   3.354268   1.101782  13.509896  14.481587
                   26         27         28         29         30
    26  O    0.000000
    27  H    4.967582   0.000000
    28  H    7.233108   2.455695   0.000000
    29  H    9.067462   4.762272   2.470834   0.000000
    30  H   10.304489   6.729202   4.749565   2.440192   0.000000
    31  H   10.666155   9.248826   8.303799   6.798511   4.867822
    32  H    8.699208   8.308575   8.029786   7.228311   5.986809
    33  H    6.290694   6.805586   7.236552   7.238083   6.818765
    34  H    3.962140   4.889444   6.011092   6.829709   7.253906
    35  H    2.314150   3.783083   5.587471   7.062313   8.073298
    36  H   11.525773   8.448997   6.635692   4.392626   1.984618
    37  H    3.216960   2.170018   4.625683   6.884355   8.688194
    38  H   12.300911  10.245978   8.874830   6.930380   4.625318
    39  H   14.473744  12.317098  10.786773   8.660220   6.264094
    40  H   14.986069  12.322612  10.553322   8.281704   5.957625
    41  H   15.642708  13.089990  11.331914   9.028565   6.608683
    42  H   15.184092  12.054398  10.057382   7.640364   5.357840
    43  H   13.950779  10.588770   8.525082   6.083697   3.865856
    44  H   13.654063  10.527216   8.591964   6.246749   3.984594
                   31         32         33         34         35
    31  H    0.000000
    32  H    2.451451   0.000000
    33  H    4.768213   2.479824   0.000000
    34  H    6.730302   4.750507   2.431907   0.000000
    35  H    8.429704   6.608484   4.343201   1.911544   0.000000
    36  H    3.747043   5.556207   7.051346   8.075678   9.227777
    37  H   10.508976   9.126834   7.153994   4.822953   3.080098
    38  H    2.155377   4.485018   6.692792   8.454999  10.017010
    39  H    4.155217   6.462104   8.777285  10.622957  12.197138
    40  H    5.308700   7.594071   9.712848  11.292358  12.697993
    41  H    5.416022   7.843763  10.123285  11.848988  13.336654
    42  H    5.867501   8.248128  10.247365  11.611061  12.877151
    43  H    5.495037   7.678691   9.419027  10.532848  11.661330
    44  H    4.917822   7.126326   8.935386  10.155420  11.362180
                   36         37         38         39         40
    36  H    0.000000
    37  H   10.281707   0.000000
    38  H    3.083993  11.764243   0.000000
    39  H    4.554295  13.901070   2.202381   0.000000
    40  H    4.466026  14.066916   3.154100   1.784780   0.000000
    41  H    4.791448  14.817204   3.474941   1.782408   1.787595
    42  H    3.687819  13.946993   4.147501   3.590302   2.929284
    43  H    2.575739  12.535994   3.841438   3.974739   3.021751
    44  H    2.258230  12.396664   3.708219   4.134475   3.897227
                   41         42         43         44
    41  H    0.000000
    42  H    2.353126   0.000000
    43  H    3.419911   1.788701   0.000000
    44  H    3.529090   1.783243   1.787222   0.000000
 Stoichiometry    C22H18N2O2
 Framework group  C1[X(C22H18N2O2)]
 Deg. of freedom   126
 Full point group                 C1      NOp   1
 Largest Abelian subgroup         C1      NOp   1
 Largest concise Abelian subgroup C1      NOp   1
                         Standard orientation:                         
 ---------------------------------------------------------------------
 Center     Atomic      Atomic             Coordinates (Angstroms)
 Number     Number       Type             X           Y           Z
 ---------------------------------------------------------------------
      1          6           0        3.186529    0.523838    0.027045
      2          6           0        3.072340    1.932403    0.065572
      3          6           0        1.845028    2.567512    0.060567
      4          6           0        0.646930    1.822125    0.013312
      5          6           0       -0.635032    2.456289    0.020043
      6          6           0       -1.790342    1.726656   -0.028861
      7          6           0       -1.781695    0.293348   -0.098892
      8          6           0       -2.989228   -0.477834   -0.164426
      9          6           0       -2.867458   -1.886534   -0.203118
     10          6           0       -1.638227   -2.524829   -0.168042
     11          6           0       -0.437333   -1.790936   -0.115011
     12          6           0        0.843977   -2.424434   -0.102767
     13          6           0        2.003208   -1.701489   -0.059673
     14          6           0        1.991362   -0.265400   -0.021439
     15          6           0        0.712227    0.394544   -0.031784
     16          6           0       -0.505170   -0.365007   -0.083889
     17          6           0        4.496179   -0.108100    0.038012
     18          6           0       -4.300526    0.162648   -0.204065
     19          6           0        5.700123    0.498002    0.074862
     20          6           0       -5.468185   -0.448115    0.149918
     21          7           0       -6.734034    0.060314    0.038092
     22          6           0       -7.811491   -0.515310    0.819645
     23          6           0       -6.938417    1.389263   -0.496129
     24          7           0        6.918168   -0.292355    0.081096
     25          8           0        7.966578    0.343773    0.112615
     26          8           0        6.846035   -1.515511    0.055479
     27          1           0        3.978330    2.540458    0.102904
     28          1           0        1.792118    3.658870    0.094819
     29          1           0       -0.676120    3.547662    0.073481
     30          1           0       -2.743987    2.254217   -0.000398
     31          1           0       -3.769090   -2.494981   -0.300353
     32          1           0       -1.591443   -3.616956   -0.207426
     33          1           0        0.885147   -3.517115   -0.129538
     34          1           0        2.951737   -2.237452   -0.053129
     35          1           0        4.554204   -1.197495    0.014611
     36          1           0       -4.339547    1.201062   -0.533094
     37          1           0        5.916125    1.563767    0.101827
     38          1           0       -5.443816   -1.457234    0.573733
     39          1           0       -7.594477   -1.572200    1.034085
     40          1           0       -7.961841    0.003087    1.788376
     41          1           0       -8.760235   -0.468217    0.259999
     42          1           0       -8.007584    1.542376   -0.703451
     43          1           0       -6.604051    2.185653    0.199732
     44          1           0       -6.384103    1.510851   -1.440521
 ---------------------------------------------------------------------
 Rotational constants (GHZ):           0.6879019           0.0739567           0.0671651
 Leave Link  202 at Thu Aug  7 17:39:08 2025, MaxMem=  1342177280 cpu:               0.0 elap:               0.0
 (Enter /opt/bwhpc/common/chem/gaussian/g16.C.01/x86_64-Intel-avx2-source/g16/l301.exe)
 Standard basis: CC-pVDZ (5D, 7F)
 Ernie: Thresh=  0.10000D-02 Tol=  0.10000D-05 Strict=F.
 Ernie:  52 primitive shells out of 662 were deleted.
 There are   480 symmetry adapted cartesian basis functions of A   symmetry.
 There are   454 symmetry adapted basis functions of A   symmetry.
   454 basis functions,   984 primitive gaussians,   480 cartesian basis functions
    90 alpha electrons       90 beta electrons
       nuclear repulsion energy      2038.6634330680 Hartrees.
 IExCor=  402 DFT=T Ex+Corr=B3LYP ExCW=0 ScaHFX=  0.200000
 ScaDFX=  0.800000  0.720000  1.000000  0.810000 ScalE2=  1.000000  1.000000
 IRadAn=      5 IRanWt=     -1 IRanGd=            0 ICorTp=0 IEmpDi=  4
 NAtoms=   44 NActive=   44 NUniq=   44 SFac= 1.00D+00 NAtFMM=   60 NAOKFM=F Big=F
 Integral buffers will be    131072 words long.
 Raffenetti 2 integral format.
 Two-electron integral symmetry is turned on.
 Leave Link  301 at Thu Aug  7 17:39:08 2025, MaxMem=  1342177280 cpu:               0.4 elap:               0.1
 (Enter /opt/bwhpc/common/chem/gaussian/g16.C.01/x86_64-Intel-avx2-source/g16/l302.exe)
 NPDir=0 NMtPBC=     1 NCelOv=     1 NCel=       1 NClECP=     1 NCelD=      1
         NCelK=      1 NCelE2=     1 NClLst=     1 CellRange=     0.0.
 One-electron integrals computed using PRISM.
 One-electron integral symmetry used in STVInt
 NBasis=   454 RedAO= T EigKep=  6.92D-05  NBF=   454
 NBsUse=   454 1.00D-06 EigRej= -1.00D+00 NBFU=   454
 Precomputing XC quadrature grid using
 IXCGrd= 4 IRadAn=           5 IRanWt=          -1 IRanGd=           0 AccXCQ= 0.00D+00.
 Generated NRdTot=       0 NPtTot=           0 NUsed=           0 NTot=          32
 NSgBfM=   460   460   460   460   460 MxSgAt=    44 MxSgA2=    44.
 Leave Link  302 at Thu Aug  7 17:39:09 2025, MaxMem=  1342177280 cpu:               6.1 elap:               0.8
 (Enter /opt/bwhpc/common/chem/gaussian/g16.C.01/x86_64-Intel-avx2-source/g16/l303.exe)
 DipDrv:  MaxL=1.
 Leave Link  303 at Thu Aug  7 17:39:09 2025, MaxMem=  1342177280 cpu:               0.8 elap:               0.1
 (Enter /opt/bwhpc/common/chem/gaussian/g16.C.01/x86_64-Intel-avx2-source/g16/l401.exe)
 ExpMin= 1.22D-01 ExpMax= 1.17D+04 ExpMxC= 4.01D+02 IAcc=3 IRadAn=         5 AccDes= 0.00D+00
 Harris functional with IExCor=  402 and IRadAn=       5 diagonalized for initial guess.
 HarFok:  IExCor=  402 AccDes= 0.00D+00 IRadAn=         5 IDoV= 1 UseB2=F ITyADJ=14
 ICtDFT=  3500011 ScaDFX=  1.000000  1.000000  1.000000  1.000000
 FoFCou: FMM=F IPFlag=           0 FMFlag=      100000 FMFlg1=           0
         NFxFlg=           0 DoJE=T BraDBF=F KetDBF=T FulRan=T
         wScrn=  0.000000 ICntrl=       500 IOpCl=  0 I1Cent=   200000004 NGrid=           0
         NMat0=    1 NMatS0=      1 NMatT0=    0 NMatD0=    1 NMtDS0=    0 NMtDT0=    0
 Petite list used in FoFCou.
 Harris En= -1109.07355862248    
 JPrj=0 DoOrth=F DoCkMO=F.
 Leave Link  401 at Thu Aug  7 17:39:13 2025, MaxMem=  1342177280 cpu:              34.1 elap:               4.3
 (Enter /opt/bwhpc/common/chem/gaussian/g16.C.01/x86_64-Intel-avx2-source/g16/l502.exe)
 Integral symmetry usage will be decided dynamically.
 Closed shell SCF:
 Using DIIS extrapolation, IDIIS=  1040.
 NGot=  1342177280 LenX=  1341706554 LenY=  1341475674
 Requested convergence on RMS density matrix=1.00D-08 within 128 cycles.
 Requested convergence on MAX density matrix=1.00D-06.
 Requested convergence on             energy=1.00D-06.
 No special actions if energy rises.
 Fock matrices will be formed incrementally for  20 cycles.
 Integral accuracy reduced to 1.0D-05 until final iterations.

 Cycle   1  Pass 0  IDiag  1:
 FoFJK:  IHMeth= 1 ICntrl=       0 DoSepK=F KAlg= 0 I1Cent=           0 FoldK=F
 IRaf= 700000000 NMat=       1 IRICut=       1 DoRegI=T DoRafI=F ISym2E= 0 IDoP0=0 IntGTp=1.
 FoFCou: FMM=F IPFlag=           0 FMFlag=      100000 FMFlg1=           0
         NFxFlg=           0 DoJE=F BraDBF=F KetDBF=F FulRan=T
         wScrn=  0.000000 ICntrl=         0 IOpCl=  0 I1Cent=           0 NGrid=           0
         NMat0=    1 NMatS0=      1 NMatT0=    0 NMatD0=    1 NMtDS0=    0 NMtDT0=    0
 Symmetry not used in FoFCou.
 E= -1108.55514026177    
 DIIS: error= 4.12D-02 at cycle   1 NSaved=   1.
 NSaved= 1 IEnMin= 1 EnMin= -1108.55514026177     IErMin= 1 ErrMin= 4.12D-02
 ErrMax= 4.12D-02  0.00D+00 EMaxC= 1.00D-01 BMatC= 5.40D-01 BMatP= 5.40D-01
 IDIUse=3 WtCom= 5.88D-01 WtEn= 4.12D-01
 Coeff-Com:  0.100D+01
 Coeff-En:   0.100D+01
 Coeff:      0.100D+01
 Gap=     0.089 Goal=   None    Shift=    0.000
 GapD=    0.089 DampG=0.500 DampE=0.500 DampFc=0.2500 IDamp=-1.
 Damping current iteration by 2.50D-01
 RMSDP=6.99D-03 MaxDP=2.64D-01              OVMax= 4.14D-01

 Cycle   2  Pass 0  IDiag  1:
 RMSU=  1.50D-03    CP:  9.52D-01
 E= -1108.75080689928     Delta-E=       -0.195666637503 Rises=F Damp=T
 DIIS: error= 1.86D-02 at cycle   2 NSaved=   2.
 NSaved= 2 IEnMin= 2 EnMin= -1108.75080689928     IErMin= 2 ErrMin= 1.86D-02
 ErrMax= 1.86D-02  0.00D+00 EMaxC= 1.00D-01 BMatC= 1.19D-01 BMatP= 5.40D-01
 IDIUse=3 WtCom= 8.14D-01 WtEn= 1.86D-01
 Coeff-Com: -0.643D+00 0.164D+01
 Coeff-En:   0.000D+00 0.100D+01
 Coeff:     -0.524D+00 0.152D+01
 Gap=     0.120 Goal=   None    Shift=    0.000
 RMSDP=3.85D-03 MaxDP=1.42D-01 DE=-1.96D-01 OVMax= 4.53D-01

 Cycle   3  Pass 0  IDiag  1:
 RMSU=  1.81D-03    CP:  8.35D-01  2.75D+00
 E= -1109.06382768761     Delta-E=       -0.313020788330 Rises=F Damp=F
 DIIS: error= 1.21D-02 at cycle   3 NSaved=   3.
 NSaved= 3 IEnMin= 3 EnMin= -1109.06382768761     IErMin= 3 ErrMin= 1.21D-02
 ErrMax= 1.21D-02  0.00D+00 EMaxC= 1.00D-01 BMatC= 4.42D-02 BMatP= 1.19D-01
 IDIUse=3 WtCom= 8.79D-01 WtEn= 1.21D-01
 Coeff-Com: -0.357D+00 0.857D+00 0.500D+00
 Coeff-En:   0.000D+00 0.000D+00 0.100D+01
 Coeff:     -0.314D+00 0.753D+00 0.561D+00
 Gap=     0.101 Goal=   None    Shift=    0.000
 RMSDP=8.41D-04 MaxDP=6.27D-02 DE=-3.13D-01 OVMax= 1.25D-01

 Cycle   4  Pass 0  IDiag  1:
 RMSU=  6.06D-04    CP:  8.47D-01  2.65D+00  7.12D-01
 E= -1109.10083364105     Delta-E=       -0.037005953443 Rises=F Damp=F
 DIIS: error= 6.22D-03 at cycle   4 NSaved=   4.
 NSaved= 4 IEnMin= 4 EnMin= -1109.10083364105     IErMin= 4 ErrMin= 6.22D-03
 ErrMax= 6.22D-03  0.00D+00 EMaxC= 1.00D-01 BMatC= 1.28D-02 BMatP= 4.42D-02
 IDIUse=3 WtCom= 9.38D-01 WtEn= 6.22D-02
 Coeff-Com: -0.120D+00 0.300D+00 0.351D+00 0.469D+00
 Coeff-En:   0.000D+00 0.000D+00 0.223D+00 0.777D+00
 Coeff:     -0.112D+00 0.281D+00 0.343D+00 0.488D+00
 Gap=     0.090 Goal=   None    Shift=    0.000
 RMSDP=3.60D-04 MaxDP=2.30D-02 DE=-3.70D-02 OVMax= 5.39D-02

 Cycle   5  Pass 0  IDiag  1:
 RMSU=  2.31D-04    CP:  8.47D-01  2.60D+00  7.93D-01  6.33D-01
 E= -1109.11121915951     Delta-E=       -0.010385518457 Rises=F Damp=F
 DIIS: error= 4.27D-03 at cycle   5 NSaved=   5.
 NSaved= 5 IEnMin= 5 EnMin= -1109.11121915951     IErMin= 5 ErrMin= 4.27D-03
 ErrMax= 4.27D-03  0.00D+00 EMaxC= 1.00D-01 BMatC= 3.36D-03 BMatP= 1.28D-02
 IDIUse=3 WtCom= 9.57D-01 WtEn= 4.27D-02
 Coeff-Com: -0.212D-01 0.619D-01 0.166D+00 0.368D+00 0.425D+00
 Coeff-En:   0.000D+00 0.000D+00 0.000D+00 0.209D+00 0.791D+00
 Coeff:     -0.203D-01 0.592D-01 0.159D+00 0.362D+00 0.441D+00
 Gap=     0.090 Goal=   None    Shift=    0.000
 RMSDP=1.57D-04 MaxDP=1.45D-02 DE=-1.04D-02 OVMax= 3.30D-02

 Cycle   6  Pass 0  IDiag  1:
 RMSU=  9.86D-05    CP:  8.47D-01  2.61D+00  7.82D-01  6.99D-01  5.09D-01
 E= -1109.11388421306     Delta-E=       -0.002665053558 Rises=F Damp=F
 DIIS: error= 1.77D-03 at cycle   6 NSaved=   6.
 NSaved= 6 IEnMin= 6 EnMin= -1109.11388421306     IErMin= 6 ErrMin= 1.77D-03
 ErrMax= 1.77D-03  0.00D+00 EMaxC= 1.00D-01 BMatC= 5.19D-04 BMatP= 3.36D-03
 IDIUse=3 WtCom= 9.82D-01 WtEn= 1.77D-02
 Coeff-Com: -0.311D-02 0.123D-01 0.708D-01 0.186D+00 0.317D+00 0.417D+00
 Coeff-En:   0.000D+00 0.000D+00 0.000D+00 0.000D+00 0.136D+00 0.864D+00
 Coeff:     -0.305D-02 0.121D-01 0.696D-01 0.183D+00 0.314D+00 0.425D+00
 Gap=     0.091 Goal=   None    Shift=    0.000
 RMSDP=5.57D-05 MaxDP=6.17D-03 DE=-2.67D-03 OVMax= 1.22D-02

 Cycle   7  Pass 0  IDiag  1:
 RMSU=  4.03D-05    CP:  8.47D-01  2.61D+00  7.78D-01  7.00D-01  5.70D-01
                    CP:  6.48D-01
 E= -1109.11427020563     Delta-E=       -0.000385992564 Rises=F Damp=F
 DIIS: error= 3.44D-04 at cycle   7 NSaved=   7.
 NSaved= 7 IEnMin= 7 EnMin= -1109.11427020563     IErMin= 7 ErrMin= 3.44D-04
 ErrMax= 3.44D-04  0.00D+00 EMaxC= 1.00D-01 BMatC= 5.03D-05 BMatP= 5.19D-04
 IDIUse=3 WtCom= 9.97D-01 WtEn= 3.44D-03
 Coeff-Com:  0.145D-02-0.169D-02 0.196D-01 0.571D-01 0.140D+00 0.287D+00
 Coeff-Com:  0.497D+00
 Coeff-En:   0.000D+00 0.000D+00 0.000D+00 0.000D+00 0.000D+00 0.862D-01
 Coeff-En:   0.914D+00
 Coeff:      0.144D-02-0.169D-02 0.195D-01 0.569D-01 0.140D+00 0.286D+00
 Coeff:      0.498D+00
 Gap=     0.092 Goal=   None    Shift=    0.000
 RMSDP=2.29D-05 MaxDP=1.16D-03 DE=-3.86D-04 OVMax= 3.92D-03

 Cycle   8  Pass 0  IDiag  1:
 RMSU=  1.53D-05    CP:  8.47D-01  2.61D+00  7.82D-01  6.91D-01  5.83D-01
                    CP:  6.90D-01  6.79D-01
 E= -1109.11431760228     Delta-E=       -0.000047396649 Rises=F Damp=F
 DIIS: error= 1.15D-04 at cycle   8 NSaved=   8.
 NSaved= 8 IEnMin= 8 EnMin= -1109.11431760228     IErMin= 8 ErrMin= 1.15D-04
 ErrMax= 1.15D-04  0.00D+00 EMaxC= 1.00D-01 BMatC= 9.31D-06 BMatP= 5.03D-05
 IDIUse=3 WtCom= 9.99D-01 WtEn= 1.15D-03
 Coeff-Com:  0.206D-02-0.420D-02 0.246D-02 0.103D-01 0.516D-01 0.142D+00
 Coeff-Com:  0.356D+00 0.439D+00
 Coeff-En:   0.000D+00 0.000D+00 0.000D+00 0.000D+00 0.000D+00 0.000D+00
 Coeff-En:   0.131D+00 0.869D+00
 Coeff:      0.206D-02-0.420D-02 0.245D-02 0.103D-01 0.515D-01 0.142D+00
 Coeff:      0.356D+00 0.440D+00
 Gap=     0.092 Goal=   None    Shift=    0.000
 RMSDP=8.26D-06 MaxDP=4.69D-04 DE=-4.74D-05 OVMax= 1.12D-03

 Initial convergence to 1.0D-05 achieved.  Increase integral accuracy.
 Cycle   9  Pass 1  IDiag  1:
 E= -1109.11428664294     Delta-E=        0.000030959338 Rises=F Damp=F
 DIIS: error= 2.75D-04 at cycle   1 NSaved=   1.
 NSaved= 1 IEnMin= 1 EnMin= -1109.11428664294     IErMin= 1 ErrMin= 2.75D-04
 ErrMax= 2.75D-04  0.00D+00 EMaxC= 1.00D-01 BMatC= 1.72D-05 BMatP= 1.72D-05
 IDIUse=3 WtCom= 9.97D-01 WtEn= 2.75D-03
 Coeff-Com:  0.100D+01
 Coeff-En:   0.100D+01
 Coeff:      0.100D+01
 Gap=     0.092 Goal=   None    Shift=    0.000
 RMSDP=8.26D-06 MaxDP=4.69D-04 DE= 3.10D-05 OVMax= 7.87D-04

 Cycle  10  Pass 1  IDiag  1:
 RMSU=  3.99D-04    CP:  9.99D-01
 E= -1109.11429781588     Delta-E=       -0.000011172938 Rises=F Damp=F
 DIIS: error= 6.00D-05 at cycle   2 NSaved=   2.
 NSaved= 2 IEnMin= 2 EnMin= -1109.11429781588     IErMin= 2 ErrMin= 6.00D-05
 ErrMax= 6.00D-05  0.00D+00 EMaxC= 1.00D-01 BMatC= 2.33D-06 BMatP= 1.72D-05
 IDIUse=1 WtCom= 1.00D+00 WtEn= 0.00D+00
 Coeff-Com:  0.151D+00 0.849D+00
 Coeff:      0.151D+00 0.849D+00
 Gap=     0.092 Goal=   None    Shift=    0.000
 RMSDP=1.15D-05 MaxDP=4.71D-04 DE=-1.12D-05 OVMax= 1.79D-03

 Cycle  11  Pass 1  IDiag  1:
 RMSU=  1.12D-05    CP:  9.99D-01  1.01D+00
 E= -1109.11428998283     Delta-E=        0.000007833047 Rises=F Damp=F
 DIIS: error= 1.17D-04 at cycle   3 NSaved=   3.
 NSaved= 3 IEnMin= 2 EnMin= -1109.11429781588     IErMin= 2 ErrMin= 6.00D-05
 ErrMax= 1.17D-04  0.00D+00 EMaxC= 1.00D-01 BMatC= 8.74D-06 BMatP= 2.33D-06
 IDIUse=3 WtCom= 4.81D-01 WtEn= 5.19D-01
 Coeff-Com: -0.149D-02 0.661D+00 0.340D+00
 Coeff-En:   0.000D+00 0.728D+00 0.272D+00
 Coeff:     -0.716D-03 0.696D+00 0.305D+00
 Gap=     0.092 Goal=   None    Shift=    0.000
 RMSDP=6.75D-06 MaxDP=2.88D-04 DE= 7.83D-06 OVMax= 1.17D-03

 Cycle  12  Pass 1  IDiag  1:
 RMSU=  1.15D-06    CP:  9.99D-01  1.01D+00  4.13D-01
 E= -1109.11430037828     Delta-E=       -0.000010395445 Rises=F Damp=F
 DIIS: error= 1.52D-05 at cycle   4 NSaved=   4.
 NSaved= 4 IEnMin= 4 EnMin= -1109.11430037828     IErMin= 4 ErrMin= 1.52D-05
 ErrMax= 1.52D-05  0.00D+00 EMaxC= 1.00D-01 BMatC= 1.87D-07 BMatP= 2.33D-06
 IDIUse=1 WtCom= 1.00D+00 WtEn= 0.00D+00
 Coeff-Com: -0.305D-02 0.445D+00 0.187D+00 0.371D+00
 Coeff:     -0.305D-02 0.445D+00 0.187D+00 0.371D+00
 Gap=     0.092 Goal=   None    Shift=    0.000
 RMSDP=1.09D-06 MaxDP=6.22D-05 DE=-1.04D-05 OVMax= 1.38D-04

 Cycle  13  Pass 1  IDiag  1:
 RMSU=  4.59D-07    CP:  9.99D-01  1.01D+00  3.38D-01  5.62D-01
 E= -1109.11430057354     Delta-E=       -0.000000195262 Rises=F Damp=F
 DIIS: error= 5.83D-06 at cycle   5 NSaved=   5.
 NSaved= 5 IEnMin= 5 EnMin= -1109.11430057354     IErMin= 5 ErrMin= 5.83D-06
 ErrMax= 5.83D-06  0.00D+00 EMaxC= 1.00D-01 BMatC= 5.76D-09 BMatP= 1.87D-07
 IDIUse=1 WtCom= 1.00D+00 WtEn= 0.00D+00
 Coeff-Com: -0.206D-02 0.273D+00 0.111D+00 0.262D+00 0.356D+00
 Coeff:     -0.206D-02 0.273D+00 0.111D+00 0.262D+00 0.356D+00
 Gap=     0.092 Goal=   None    Shift=    0.000
 RMSDP=1.80D-07 MaxDP=1.82D-05 DE=-1.95D-07 OVMax= 3.76D-05

 Cycle  14  Pass 1  IDiag  1:
 RMSU=  1.52D-07    CP:  9.99D-01  1.01D+00  3.42D-01  5.80D-01  8.22D-01
 E= -1109.11430057834     Delta-E=       -0.000000004808 Rises=F Damp=F
 DIIS: error= 1.10D-06 at cycle   6 NSaved=   6.
 NSaved= 6 IEnMin= 6 EnMin= -1109.11430057834     IErMin= 6 ErrMin= 1.10D-06
 ErrMax= 1.10D-06  0.00D+00 EMaxC= 1.00D-01 BMatC= 3.53D-10 BMatP= 5.76D-09
 IDIUse=1 WtCom= 1.00D+00 WtEn= 0.00D+00
 Coeff-Com: -0.105D-02 0.135D+00 0.543D-01 0.135D+00 0.232D+00 0.445D+00
 Coeff:     -0.105D-02 0.135D+00 0.543D-01 0.135D+00 0.232D+00 0.445D+00
 Gap=     0.092 Goal=   None    Shift=    0.000
 RMSDP=5.48D-08 MaxDP=3.88D-06 DE=-4.81D-09 OVMax= 9.31D-06

 Cycle  15  Pass 1  IDiag  1:
 RMSU=  4.21D-08    CP:  9.99D-01  1.01D+00  3.41D-01  5.93D-01  8.34D-01
                    CP:  8.02D-01
 E= -1109.11430057879     Delta-E=       -0.000000000443 Rises=F Damp=F
 DIIS: error= 2.53D-07 at cycle   7 NSaved=   7.
 NSaved= 7 IEnMin= 7 EnMin= -1109.11430057879     IErMin= 7 ErrMin= 2.53D-07
 ErrMax= 2.53D-07  0.00D+00 EMaxC= 1.00D-01 BMatC= 3.45D-11 BMatP= 3.53D-10
 IDIUse=1 WtCom= 1.00D+00 WtEn= 0.00D+00
 Coeff-Com: -0.198D-03 0.235D-01 0.920D-02 0.265D-01 0.615D-01 0.255D+00
 Coeff-Com:  0.625D+00
 Coeff:     -0.198D-03 0.235D-01 0.920D-02 0.265D-01 0.615D-01 0.255D+00
 Coeff:      0.625D+00
 Gap=     0.092 Goal=   None    Shift=    0.000
 RMSDP=2.17D-08 MaxDP=8.24D-07 DE=-4.43D-10 OVMax= 3.32D-06

 Cycle  16  Pass 1  IDiag  1:
 RMSU=  1.53D-08    CP:  9.99D-01  1.01D+00  3.41D-01  5.92D-01  8.47D-01
                    CP:  8.47D-01  7.26D-01
 E= -1109.11430057880     Delta-E=       -0.000000000015 Rises=F Damp=F
 DIIS: error= 1.08D-07 at cycle   8 NSaved=   8.
 NSaved= 8 IEnMin= 8 EnMin= -1109.11430057880     IErMin= 8 ErrMin= 1.08D-07
 ErrMax= 1.08D-07  0.00D+00 EMaxC= 1.00D-01 BMatC= 8.25D-12 BMatP= 3.45D-11
 IDIUse=1 WtCom= 1.00D+00 WtEn= 0.00D+00
 Coeff-Com:  0.234D-04-0.403D-02-0.182D-02-0.224D-02 0.497D-02 0.892D-01
 Coeff-Com:  0.393D+00 0.521D+00
 Coeff:      0.234D-04-0.403D-02-0.182D-02-0.224D-02 0.497D-02 0.892D-01
 Coeff:      0.393D+00 0.521D+00
 Gap=     0.092 Goal=   None    Shift=    0.000
 RMSDP=9.18D-09 MaxDP=3.81D-07 DE=-1.55D-11 OVMax= 1.62D-06

 SCF Done:  E(RB3LYP) =  -1109.11430058     A.U. after   16 cycles
            NFock= 16  Conv=0.92D-08     -V/T= 2.0067
 KE= 1.101777680089D+03 PE=-6.654894469088D+03 EE= 2.405339055352D+03
 Leave Link  502 at Thu Aug  7 17:41:39 2025, MaxMem=  1342177280 cpu:            1162.6 elap:             145.8
 (Enter /opt/bwhpc/common/chem/gaussian/g16.C.01/x86_64-Intel-avx2-source/g16/l801.exe)
 DoSCS=F DFT=T ScalE2(SS,OS)=  1.000000  1.000000
 Range of M.O.s used for correlation:     1   454
 NBasis=   454 NAE=    90 NBE=    90 NFC=     0 NFV=     0
 NROrb=    454 NOA=    90 NOB=    90 NVA=   364 NVB=   364

 **** Warning!!: The largest alpha MO coefficient is  0.21456506D+02


 **** Warning!!: The smallest alpha delta epsilon is  0.91732024D-01

 Leave Link  801 at Thu Aug  7 17:41:39 2025, MaxMem=  1342177280 cpu:               0.4 elap:               0.1
 (Enter /opt/bwhpc/common/chem/gaussian/g16.C.01/x86_64-Intel-avx2-source/g16/l1002.exe)
 Minotr:  Closed shell wavefunction.
          Direct CPHF calculation.
          Differentiating once with respect to electric field.
                with respect to dipole field.
          Electric field/nuclear overlap derivatives assumed to be zero.
          Requested convergence is 1.0D-08 RMS, and 1.0D-07 maximum.
          Secondary convergence is 1.0D-12 RMS, and 1.0D-12 maximum.
          NewPWx=F KeepS1=T KeepF1=T KeepIn=T MapXYZ=F SortEE=F KeepMc=T.
        13435 words used for storage of precomputed grid.
 Two-electron integral symmetry used by symmetrizing perturbed Fock matrices.
          MDV=    1342177280 using IRadAn=       1.
          Solving linear equations simultaneously, MaxMat=     384.
          There are     3 degrees of freedom in the 1st order CPHF.  IDoFFX=0 NUNeed=     3.
      3 vectors produced by pass  0 Test12= 1.09D-12 3.33D-08 XBig12= 2.32D+03 4.09D+01.
 AX will form     3 AO Fock derivatives at one time.
 FoFJK:  IHMeth= 1 ICntrl=       0 DoSepK=F KAlg= 0 I1Cent=           0 FoldK=F
 IRaf= 670000000 NMat=       3 IRICut=       1 DoRegI=T DoRafI=F ISym2E=-1 IDoP0=0 IntGTp=1.
 FoFCou: FMM=F IPFlag=           0 FMFlag=      100000 FMFlg1=           0
         NFxFlg=           0 DoJE=F BraDBF=F KetDBF=F FulRan=T
         wScrn=  0.000000 ICntrl=         0 IOpCl=  0 I1Cent=           0 NGrid=           0
         NMat0=    3 NMatS0=      3 NMatT0=    0 NMatD0=    3 NMtDS0=    0 NMtDT0=    0
 Petite list used in FoFCou.
      3 vectors produced by pass  1 Test12= 1.09D-12 3.33D-08 XBig12= 6.11D+02 6.81D+00.
      3 vectors produced by pass  2 Test12= 1.09D-12 3.33D-08 XBig12= 1.96D+02 4.92D+00.
      3 vectors produced by pass  3 Test12= 1.09D-12 3.33D-08 XBig12= 1.26D+02 3.19D+00.
      3 vectors produced by pass  4 Test12= 1.09D-12 3.33D-08 XBig12= 3.96D+01 1.59D+00.
      3 vectors produced by pass  5 Test12= 1.09D-12 3.33D-08 XBig12= 1.29D+01 7.41D-01.
      3 vectors produced by pass  6 Test12= 1.09D-12 3.33D-08 XBig12= 4.46D+00 3.66D-01.
      3 vectors produced by pass  7 Test12= 1.09D-12 3.33D-08 XBig12= 1.24D+00 3.12D-01.
      3 vectors produced by pass  8 Test12= 1.09D-12 3.33D-08 XBig12= 2.20D-01 1.29D-01.
      3 vectors produced by pass  9 Test12= 1.09D-12 3.33D-08 XBig12= 9.26D-02 4.86D-02.
      3 vectors produced by pass 10 Test12= 1.09D-12 3.33D-08 XBig12= 1.81D-02 2.86D-02.
      3 vectors produced by pass 11 Test12= 1.09D-12 3.33D-08 XBig12= 6.09D-03 1.22D-02.
      3 vectors produced by pass 12 Test12= 1.09D-12 3.33D-08 XBig12= 1.29D-03 4.60D-03.
      3 vectors produced by pass 13 Test12= 1.09D-12 3.33D-08 XBig12= 3.54D-04 2.79D-03.
      3 vectors produced by pass 14 Test12= 1.09D-12 3.33D-08 XBig12= 6.68D-05 1.46D-03.
      3 vectors produced by pass 15 Test12= 1.09D-12 3.33D-08 XBig12= 7.81D-06 6.63D-04.
      3 vectors produced by pass 16 Test12= 1.09D-12 3.33D-08 XBig12= 2.45D-06 1.92D-04.
      3 vectors produced by pass 17 Test12= 1.09D-12 3.33D-08 XBig12= 3.04D-07 8.77D-05.
      3 vectors produced by pass 18 Test12= 1.09D-12 3.33D-08 XBig12= 3.56D-08 2.84D-05.
      3 vectors produced by pass 19 Test12= 1.09D-12 3.33D-08 XBig12= 9.47D-09 1.16D-05.
      3 vectors produced by pass 20 Test12= 1.09D-12 3.33D-08 XBig12= 6.73D-10 2.59D-06.
      3 vectors produced by pass 21 Test12= 1.09D-12 3.33D-08 XBig12= 3.57D-11 6.93D-07.
      2 vectors produced by pass 22 Test12= 1.09D-12 3.33D-08 XBig12= 1.67D-12 1.30D-07.
 InvSVY:  IOpt=1 It=  1 EMax= 3.55D-15
 Solved reduced A of dimension    68 with     3 vectors.
 FullF1:  Do perturbations      1 to       3.
 SCF Polarizability for W=    0.000000:
                1             2             3 
      1  0.752897D+03
      2  0.240083D+02  0.287166D+03
      3 -0.234410D+01  0.125485D+01  0.102424D+03
 Isotropic polarizability for W=    0.000000      380.83 Bohr**3.
 SCF Static Hyperpolarizability:
 K=  1 block:
                1 
      1  0.227193D+05
 K=  2 block:
                1             2 
      1 -0.160598D+04
      2 -0.470755D+02  0.133348D+03
 K=  3 block:
                1             2             3 
      1  0.157032D+03
      2  0.169331D+02  0.275842D+02
      3 -0.193748D+03  0.345215D+02  0.410272D+02
 End of Minotr F.D. properties file   721 does not exist.
 End of Minotr F.D. properties file   722 does not exist.
 End of Minotr F.D. properties file   788 does not exist.
 Leave Link 1002 at Thu Aug  7 17:46:32 2025, MaxMem=  1342177280 cpu:            2336.7 elap:             293.0
 (Enter /opt/bwhpc/common/chem/gaussian/g16.C.01/x86_64-Intel-avx2-source/g16/l601.exe)
 Copying SCF densities to generalized density rwf, IOpCl= 0 IROHF=0.

 **********************************************************************

            Population analysis using the SCF Density.

 **********************************************************************

 Orbital symmetries:
       Occupied  (A) (A) (A) (A) (A) (A) (A) (A) (A) (A) (A) (A)
                 (A) (A) (A) (A) (A) (A) (A) (A) (A) (A) (A) (A)
                 (A) (A) (A) (A) (A) (A) (A) (A) (A) (A) (A) (A)
                 (A) (A) (A) (A) (A) (A) (A) (A) (A) (A) (A) (A)
                 (A) (A) (A) (A) (A) (A) (A) (A) (A) (A) (A) (A)
                 (A) (A) (A) (A) (A) (A) (A) (A) (A) (A) (A) (A)
                 (A) (A) (A) (A) (A) (A) (A) (A) (A) (A) (A) (A)
                 (A) (A) (A) (A) (A) (A)
       Virtual   (A) (A) (A) (A) (A) (A) (A) (A) (A) (A) (A) (A)
                 (A) (A) (A) (A) (A) (A) (A) (A) (A) (A) (A) (A)
                 (A) (A) (A) (A) (A) (A) (A) (A) (A) (A) (A) (A)
                 (A) (A) (A) (A) (A) (A) (A) (A) (A) (A) (A) (A)
                 (A) (A) (A) (A) (A) (A) (A) (A) (A) (A) (A) (A)
                 (A) (A) (A) (A) (A) (A) (A) (A) (A) (A) (A) (A)
                 (A) (A) (A) (A) (A) (A) (A) (A) (A) (A) (A) (A)
                 (A) (A) (A) (A) (A) (A) (A) (A) (A) (A) (A) (A)
                 (A) (A) (A) (A) (A) (A) (A) (A) (A) (A) (A) (A)
                 (A) (A) (A) (A) (A) (A) (A) (A) (A) (A) (A) (A)
                 (A) (A) (A) (A) (A) (A) (A) (A) (A) (A) (A) (A)
                 (A) (A) (A) (A) (A) (A) (A) (A) (A) (A) (A) (A)
                 (A) (A) (A) (A) (A) (A) (A) (A) (A) (A) (A) (A)
                 (A) (A) (A) (A) (A) (A) (A) (A) (A) (A) (A) (A)
                 (A) (A) (A) (A) (A) (A) (A) (A) (A) (A) (A) (A)
                 (A) (A) (A) (A) (A) (A) (A) (A) (A) (A) (A) (A)
                 (A) (A) (A) (A) (A) (A) (A) (A) (A) (A) (A) (A)
                 (A) (A) (A) (A) (A) (A) (A) (A) (A) (A) (A) (A)
                 (A) (A) (A) (A) (A) (A) (A) (A) (A) (A) (A) (A)
                 (A) (A) (A) (A) (A) (A) (A) (A) (A) (A) (A) (A)
                 (A) (A) (A) (A) (A) (A) (A) (A) (A) (A) (A) (A)
                 (A) (A) (A) (A) (A) (A) (A) (A) (A) (A) (A) (A)
                 (A) (A) (A) (A) (A) (A) (A) (A) (A) (A) (A) (A)
                 (A) (A) (A) (A) (A) (A) (A) (A) (A) (A) (A) (A)
                 (A) (A) (A) (A) (A) (A) (A) (A) (A) (A) (A) (A)
                 (A) (A) (A) (A) (A) (A) (A) (A) (A) (A) (A) (A)
                 (A) (A) (A) (A) (A) (A) (A) (A) (A) (A) (A) (A)
                 (A) (A) (A) (A) (A) (A) (A) (A) (A) (A) (A) (A)
                 (A) (A) (A) (A) (A) (A) (A) (A) (A) (A) (A) (A)
                 (A) (A) (A) (A) (A) (A) (A) (A) (A) (A) (A) (A)
                 (A) (A) (A) (A)
 The electronic state is 1-A.
 Alpha  occ. eigenvalues --  -19.14634 -19.14599 -14.54019 -14.37657 -10.24321
 Alpha  occ. eigenvalues --  -10.23945 -10.23896 -10.23006 -10.21937 -10.21534
 Alpha  occ. eigenvalues --  -10.21322 -10.21280 -10.21015 -10.20859 -10.20586
 Alpha  occ. eigenvalues --  -10.20520 -10.20372 -10.20175 -10.20072 -10.20032
 Alpha  occ. eigenvalues --  -10.19970 -10.19927 -10.19902 -10.19641 -10.19552
 Alpha  occ. eigenvalues --  -10.18611  -1.20886  -1.03365  -0.97333  -0.90080
 Alpha  occ. eigenvalues --   -0.86666  -0.84191  -0.83370  -0.80895  -0.78974
 Alpha  occ. eigenvalues --   -0.77004  -0.75537  -0.74671  -0.73959  -0.73108
 Alpha  occ. eigenvalues --   -0.69136  -0.67410  -0.63999  -0.62888  -0.62617
 Alpha  occ. eigenvalues --   -0.60945  -0.57841  -0.56985  -0.54398  -0.53479
 Alpha  occ. eigenvalues --   -0.53217  -0.52408  -0.51690  -0.51399  -0.50761
 Alpha  occ. eigenvalues --   -0.50239  -0.48647  -0.48546  -0.47737  -0.46824
 Alpha  occ. eigenvalues --   -0.45304  -0.44595  -0.44006  -0.42893  -0.42229
 Alpha  occ. eigenvalues --   -0.42123  -0.41647  -0.41542  -0.40635  -0.40517
 Alpha  occ. eigenvalues --   -0.40322  -0.39798  -0.38649  -0.38126  -0.37908
 Alpha  occ. eigenvalues --   -0.35872  -0.35299  -0.34201  -0.33738  -0.32550
 Alpha  occ. eigenvalues --   -0.31878  -0.29779  -0.28828  -0.28800  -0.27578
 Alpha  occ. eigenvalues --   -0.26957  -0.26306  -0.24192  -0.22554  -0.18581
 Alpha virt. eigenvalues --   -0.09408  -0.05536  -0.03856  -0.01937  -0.00617
 Alpha virt. eigenvalues --    0.02464   0.02975   0.03676   0.05117   0.06195
 Alpha virt. eigenvalues --    0.06507   0.07472   0.08094   0.08337   0.08708
 Alpha virt. eigenvalues --    0.09237   0.10286   0.10510   0.10948   0.11620
 Alpha virt. eigenvalues --    0.12143   0.12897   0.13209   0.13743   0.15280
 Alpha virt. eigenvalues --    0.15628   0.17742   0.18352   0.19840   0.20529
 Alpha virt. eigenvalues --    0.21756   0.22100   0.23046   0.23345   0.24141
 Alpha virt. eigenvalues --    0.24950   0.25625   0.26719   0.28437   0.28838
 Alpha virt. eigenvalues --    0.29595   0.29713   0.30095   0.31728   0.32434
 Alpha virt. eigenvalues --    0.33674   0.33878   0.37382   0.38066   0.38566
 Alpha virt. eigenvalues --    0.39899   0.41079   0.41209   0.42072   0.42133
 Alpha virt. eigenvalues --    0.43366   0.43689   0.43958   0.44973   0.45052
 Alpha virt. eigenvalues --    0.45532   0.45755   0.46249   0.46385   0.46589
 Alpha virt. eigenvalues --    0.46937   0.47966   0.48343   0.48926   0.49355
 Alpha virt. eigenvalues --    0.49738   0.50338   0.50797   0.51091   0.51514
 Alpha virt. eigenvalues --    0.51889   0.52184   0.52434   0.52908   0.53147
 Alpha virt. eigenvalues --    0.53634   0.54119   0.54580   0.54774   0.55110
 Alpha virt. eigenvalues --    0.55821   0.56999   0.57662   0.57689   0.58190
 Alpha virt. eigenvalues --    0.59197   0.59590   0.59918   0.60495   0.61231
 Alpha virt. eigenvalues --    0.61879   0.62197   0.62716   0.63470   0.64012
 Alpha virt. eigenvalues --    0.64570   0.65557   0.65986   0.66251   0.66872
 Alpha virt. eigenvalues --    0.67220   0.67759   0.68567   0.68958   0.69791
 Alpha virt. eigenvalues --    0.70252   0.70991   0.71375   0.71930   0.72521
 Alpha virt. eigenvalues --    0.73904   0.74508   0.74961   0.76314   0.77724
 Alpha virt. eigenvalues --    0.78196   0.80056   0.80652   0.82759   0.82962
 Alpha virt. eigenvalues --    0.83916   0.84761   0.84944   0.85741   0.86350
 Alpha virt. eigenvalues --    0.87524   0.87938   0.88447   0.88794   0.89094
 Alpha virt. eigenvalues --    0.90397   0.91136   0.91181   0.92305   0.92733
 Alpha virt. eigenvalues --    0.93191   0.93352   0.93726   0.94315   0.94525
 Alpha virt. eigenvalues --    0.95878   0.96014   0.96574   0.96944   0.98542
 Alpha virt. eigenvalues --    0.98819   0.99299   1.00385   1.00497   1.00773
 Alpha virt. eigenvalues --    1.01325   1.02117   1.02657   1.03636   1.04224
 Alpha virt. eigenvalues --    1.05539   1.05994   1.06608   1.06977   1.07696
 Alpha virt. eigenvalues --    1.08354   1.09283   1.09870   1.11985   1.13083
 Alpha virt. eigenvalues --    1.14546   1.14980   1.15356   1.15861   1.17527
 Alpha virt. eigenvalues --    1.19830   1.21971   1.23110   1.24381   1.25448
 Alpha virt. eigenvalues --    1.30396   1.31850   1.33038   1.33732   1.34312
 Alpha virt. eigenvalues --    1.34612   1.34984   1.36520   1.36680   1.37017
 Alpha virt. eigenvalues --    1.37309   1.37717   1.38783   1.38940   1.39229
 Alpha virt. eigenvalues --    1.40456   1.41684   1.42484   1.42588   1.43024
 Alpha virt. eigenvalues --    1.43878   1.45467   1.45870   1.46608   1.46853
 Alpha virt. eigenvalues --    1.47451   1.48786   1.49455   1.50474   1.50988
 Alpha virt. eigenvalues --    1.51295   1.51660   1.53970   1.55100   1.55610
 Alpha virt. eigenvalues --    1.56011   1.56592   1.56701   1.57762   1.58550
 Alpha virt. eigenvalues --    1.59314   1.59753   1.60095   1.60641   1.60668
 Alpha virt. eigenvalues --    1.61490   1.62168   1.62658   1.63084   1.63580
 Alpha virt. eigenvalues --    1.63833   1.64271   1.64720   1.65557   1.66118
 Alpha virt. eigenvalues --    1.66320   1.66793   1.67574   1.68454   1.68736
 Alpha virt. eigenvalues --    1.69415   1.70198   1.71952   1.73032   1.73303
 Alpha virt. eigenvalues --    1.74420   1.74783   1.75103   1.75586   1.77067
 Alpha virt. eigenvalues --    1.77382   1.78130   1.78563   1.79412   1.79904
 Alpha virt. eigenvalues --    1.80647   1.80754   1.81306   1.82341   1.82921
 Alpha virt. eigenvalues --    1.83699   1.84336   1.85008   1.85320   1.86315
 Alpha virt. eigenvalues --    1.87361   1.88244   1.89981   1.90624   1.91440
 Alpha virt. eigenvalues --    1.92902   1.93245   1.94021   1.95030   1.96272
 Alpha virt. eigenvalues --    1.97909   1.98665   1.99092   1.99850   2.00731
 Alpha virt. eigenvalues --    2.01609   2.02432   2.03766   2.04066   2.05348
 Alpha virt. eigenvalues --    2.05724   2.06245   2.07477   2.08684   2.09198
 Alpha virt. eigenvalues --    2.10011   2.10949   2.11410   2.12046   2.12661
 Alpha virt. eigenvalues --    2.13111   2.15219   2.15869   2.17461   2.18812
 Alpha virt. eigenvalues --    2.20016   2.20158   2.21480   2.22547   2.24051
 Alpha virt. eigenvalues --    2.25467   2.25901   2.27892   2.28057   2.29205
 Alpha virt. eigenvalues --    2.30740   2.30931   2.33729   2.36138   2.37079
 Alpha virt. eigenvalues --    2.37550   2.38034   2.38584   2.39122   2.39640
 Alpha virt. eigenvalues --    2.40679   2.44921   2.45046   2.47890   2.48153
 Alpha virt. eigenvalues --    2.49400   2.50055   2.51437   2.53204   2.55309
 Alpha virt. eigenvalues --    2.57691   2.58068   2.59884   2.61722   2.62312
 Alpha virt. eigenvalues --    2.63837   2.66833   2.67607   2.68709   2.70396
 Alpha virt. eigenvalues --    2.70832   2.72634   2.75086   2.76466   2.77827
 Alpha virt. eigenvalues --    2.79468   2.81546   2.83185   2.84895   2.85728
 Alpha virt. eigenvalues --    2.88462   2.98762   3.00181   3.03997   3.11165
 Alpha virt. eigenvalues --    3.23232   3.24209   3.26202   3.36478   3.41657
 Alpha virt. eigenvalues --    3.44265   3.50713   3.62593   3.66215
          Condensed to atoms (all electrons):
               1          2          3          4          5          6
     1  C    5.305188   0.393251   0.064735  -0.112652  -0.001845   0.000141
     2  C    0.393251   5.038085   0.371687   0.069068   0.012302  -0.000813
     3  C    0.064735   0.371687   5.033287   0.393430  -0.142704   0.011994
     4  C   -0.112652   0.069068   0.393430   5.154248   0.376572   0.070357
     5  C   -0.001845   0.012302  -0.142704   0.376572   5.025012   0.397150
     6  C    0.000141  -0.000813   0.011994   0.070357   0.397150   5.087400
     7  C   -0.000263   0.000068  -0.001305  -0.112287   0.063748   0.363991
     8  C   -0.000006   0.000001  -0.000005  -0.002372   0.018234  -0.146120
     9  C    0.000001  -0.000000   0.000002  -0.000046  -0.000040   0.020634
    10  C   -0.000008   0.000002  -0.000006  -0.000171   0.000062  -0.004182
    11  C   -0.002335  -0.000020  -0.000179   0.029231  -0.004562   0.028067
    12  C    0.018239  -0.000027   0.000064  -0.004748   0.000015   0.000049
    13  C   -0.163811   0.018953  -0.003938   0.026898   0.000042  -0.000071
    14  C    0.234146   0.006833  -0.126386  -0.069007   0.024878  -0.004588
    15  C   -0.007927  -0.117348   0.021146   0.268681   0.017477  -0.123084
    16  C    0.030596  -0.003932   0.025563  -0.049733  -0.127904  -0.004691
    17  C    0.326751  -0.128664   0.015250  -0.001872  -0.000004   0.000001
    18  C    0.000000   0.000000  -0.000000  -0.000011  -0.000263  -0.031161
    19  C   -0.027645  -0.025586  -0.000160   0.000001  -0.000000  -0.000000
    20  C    0.000000  -0.000000  -0.000000   0.000002  -0.000067  -0.000547
    21  N   -0.000000   0.000000  -0.000000  -0.000000  -0.000000  -0.000007
    22  C   -0.000000   0.000000  -0.000000  -0.000000  -0.000000   0.000000
    23  C   -0.000000   0.000000  -0.000000  -0.000000   0.000001   0.000043
    24  N    0.003290  -0.000315  -0.000006   0.000000  -0.000000  -0.000000
    25  O   -0.000111   0.000007  -0.000000  -0.000000  -0.000000   0.000000
    26  O    0.001467   0.000027   0.000000  -0.000000  -0.000000   0.000000
    27  H   -0.030342   0.383355  -0.053196   0.010420  -0.000346   0.000006
    28  H    0.010187  -0.048791   0.381309  -0.037791  -0.021362   0.000842
    29  H   -0.000073   0.000743  -0.022439  -0.039437   0.380015  -0.045748
    30  H    0.000001   0.000008  -0.000351   0.009808  -0.060279   0.374311
    31  H    0.000000   0.000000   0.000000  -0.000001   0.000006  -0.000241
    32  H   -0.000001   0.000000  -0.000000   0.000006  -0.000000   0.000043
    33  H   -0.000406   0.000006   0.000001   0.000023   0.000000   0.000006
    34  H   -0.053374  -0.001312   0.000017  -0.000069   0.000001  -0.000000
    35  H    0.026602   0.013670  -0.000026  -0.000136  -0.000000   0.000000
    36  H   -0.000000   0.000000  -0.000001  -0.000105   0.002483   0.011853
    37  H   -0.024390   0.006479   0.000990  -0.000070  -0.000000   0.000000
    38  H   -0.000000   0.000000   0.000000  -0.000000   0.000004  -0.000010
    39  H   -0.000000   0.000000   0.000000  -0.000000   0.000000   0.000000
    40  H    0.000000  -0.000000  -0.000000   0.000000   0.000000  -0.000000
    41  H   -0.000000   0.000000  -0.000000  -0.000000  -0.000000  -0.000000
    42  H    0.000000   0.000000   0.000000  -0.000000   0.000000   0.000000
    43  H    0.000000  -0.000000   0.000000   0.000000   0.000002  -0.000092
    44  H   -0.000000   0.000000  -0.000000  -0.000000   0.000001   0.000090
               7          8          9         10         11         12
     1  C   -0.000263  -0.000006   0.000001  -0.000008  -0.002335   0.018239
     2  C    0.000068   0.000001  -0.000000   0.000002  -0.000020  -0.000027
     3  C   -0.001305  -0.000005   0.000002  -0.000006  -0.000179   0.000064
     4  C   -0.112287  -0.002372  -0.000046  -0.000171   0.029231  -0.004748
     5  C    0.063748   0.018234  -0.000040   0.000062  -0.004562   0.000015
     6  C    0.363991  -0.146120   0.020634  -0.004182   0.028067   0.000049
     7  C    5.456647   0.280291   0.036745  -0.128039  -0.074550   0.025352
     8  C    0.280291   5.157536   0.399130   0.062784  -0.109453  -0.001867
     9  C    0.036745   0.399130   5.031793   0.368678   0.064358   0.012414
    10  C   -0.128039   0.062784   0.368678   5.030146   0.403772  -0.144176
    11  C   -0.074550  -0.109453   0.064358   0.403772   5.164891   0.366082
    12  C    0.025352  -0.001867   0.012414  -0.144176   0.366082   5.022961
    13  C   -0.004343   0.000138  -0.000750   0.012106   0.066563   0.394024
    14  C    0.029658  -0.000197   0.000076  -0.001467  -0.112224   0.068454
    15  C   -0.052066   0.029801  -0.004474   0.026653  -0.053089  -0.127738
    16  C    0.206417  -0.016125  -0.122998   0.021663   0.274943   0.019144
    17  C    0.000002   0.000000   0.000000  -0.000001  -0.000107   0.000772
    18  C   -0.076774   0.396060  -0.131957   0.014823  -0.001498  -0.000006
    19  C    0.000000   0.000000  -0.000000  -0.000000   0.000001  -0.000060
    20  C    0.014159  -0.024077  -0.021239   0.000316  -0.000025  -0.000000
    21  N   -0.000057   0.001468   0.000087  -0.000003  -0.000000  -0.000000
    22  C    0.000002   0.000075  -0.000002  -0.000000   0.000000  -0.000000
    23  C   -0.000095   0.001153   0.000043  -0.000000   0.000000   0.000000
    24  N   -0.000000   0.000000  -0.000000  -0.000000   0.000000  -0.000000
    25  O   -0.000000   0.000000   0.000000  -0.000000  -0.000000  -0.000000
    26  O   -0.000000  -0.000000  -0.000000  -0.000000   0.000000  -0.000001
    27  H    0.000001   0.000000  -0.000000   0.000000   0.000000   0.000002
    28  H   -0.000048  -0.000001   0.000000  -0.000000   0.000005  -0.000000
    29  H    0.009917  -0.000397   0.000007   0.000000   0.000025   0.000001
    30  H   -0.012951  -0.049246  -0.000946  -0.000010  -0.000113   0.000001
    31  H    0.013229  -0.035540   0.377702  -0.049521   0.009674  -0.000377
    32  H    0.000530   0.009551  -0.049415   0.377388  -0.034695  -0.021751
    33  H   -0.000165  -0.000070   0.000683  -0.022264  -0.041136   0.378499
    34  H    0.000024   0.000001   0.000007  -0.000321   0.009899  -0.055437
    35  H    0.000000  -0.000000   0.000000  -0.000001  -0.000109   0.001586
    36  H   -0.043811   0.015571   0.012129  -0.000239  -0.000018   0.000001
    37  H   -0.000000  -0.000000   0.000000   0.000000  -0.000000   0.000002
    38  H   -0.000782  -0.024754   0.008708   0.000783  -0.000067  -0.000001
    39  H   -0.000002  -0.000122   0.000043   0.000002  -0.000000  -0.000000
    40  H    0.000001   0.000023  -0.000018  -0.000000   0.000000   0.000000
    41  H   -0.000000   0.000003   0.000002   0.000000  -0.000000  -0.000000
    42  H    0.000000  -0.000061   0.000001   0.000000  -0.000000  -0.000000
    43  H    0.000033   0.000385  -0.000036  -0.000001   0.000000   0.000000
    44  H   -0.000163   0.000868   0.000057   0.000002  -0.000000  -0.000000
              13         14         15         16         17         18
     1  C   -0.163811   0.234146  -0.007927   0.030596   0.326751   0.000000
     2  C    0.018953   0.006833  -0.117348  -0.003932  -0.128664   0.000000
     3  C   -0.003938  -0.126386   0.021146   0.025563   0.015250  -0.000000
     4  C    0.026898  -0.069007   0.268681  -0.049733  -0.001872  -0.000011
     5  C    0.000042   0.024878   0.017477  -0.127904  -0.000004  -0.000263
     6  C   -0.000071  -0.004588  -0.123084  -0.004691   0.000001  -0.031161
     7  C   -0.004343   0.029658  -0.052066   0.206417   0.000002  -0.076774
     8  C    0.000138  -0.000197   0.029801  -0.016125   0.000000   0.396060
     9  C   -0.000750   0.000076  -0.004474  -0.122998   0.000000  -0.131957
    10  C    0.012106  -0.001467   0.026653   0.021663  -0.000001   0.014823
    11  C    0.066563  -0.112224  -0.053089   0.274943  -0.000107  -0.001498
    12  C    0.394024   0.068454  -0.127738   0.019144   0.000772  -0.000006
    13  C    5.104993   0.378197  -0.009144  -0.120292  -0.021014   0.000000
    14  C    0.378197   5.488748   0.211862  -0.055825  -0.084913  -0.000001
    15  C   -0.009144   0.211862   5.626946   0.161149   0.021412  -0.000209
    16  C   -0.120292  -0.055825   0.161149   5.627106  -0.000242   0.023629
    17  C   -0.021014  -0.084913   0.021412  -0.000242   5.144794  -0.000000
    18  C    0.000000  -0.000001  -0.000209   0.023629  -0.000000   5.064175
    19  C    0.000142   0.015642  -0.000237  -0.000001   0.375614  -0.000000
    20  C   -0.000000   0.000000  -0.000001  -0.000066   0.000000   0.537726
    21  N    0.000000  -0.000000   0.000000   0.000001   0.000000  -0.040324
    22  C    0.000000  -0.000000   0.000000  -0.000000  -0.000000   0.006845
    23  C   -0.000000   0.000000   0.000000  -0.000000  -0.000000  -0.004097
    24  N   -0.000026  -0.000037   0.000001  -0.000000  -0.016919   0.000000
    25  O   -0.000000  -0.000000   0.000000   0.000000   0.011095   0.000000
    26  O   -0.000026  -0.000046   0.000000   0.000000   0.009361   0.000000
    27  H   -0.000166   0.014265  -0.000503   0.000033  -0.040072  -0.000000
    28  H    0.000041   0.000508   0.012714  -0.000349  -0.000324  -0.000000
    29  H    0.000005  -0.000186   0.013695   0.000029  -0.000001   0.000020
    30  H   -0.000000   0.000024  -0.000663   0.017224   0.000000   0.016723
    31  H    0.000007   0.000001   0.000043  -0.000013  -0.000000  -0.029193
    32  H    0.000775  -0.000045  -0.000384   0.013069  -0.000000  -0.000360
    33  H   -0.042055   0.010348   0.000034   0.013367   0.000049  -0.000001
    34  H    0.381237  -0.012822   0.016088  -0.000757   0.016314   0.000000
    35  H    0.007474  -0.047934  -0.000892   0.000155   0.336216   0.000000
    36  H   -0.000000   0.000001   0.000086  -0.001552   0.000000   0.356602
    37  H    0.000008  -0.000636   0.000055   0.000000  -0.027850  -0.000000
    38  H    0.000000  -0.000000   0.000001   0.000052  -0.000000  -0.018379
    39  H    0.000000  -0.000000   0.000000   0.000000  -0.000000   0.000965
    40  H   -0.000000  -0.000000  -0.000000  -0.000000   0.000000   0.000802
    41  H    0.000000   0.000000   0.000000   0.000000   0.000000  -0.000562
    42  H    0.000000  -0.000000  -0.000000   0.000000  -0.000000  -0.000182
    43  H   -0.000000  -0.000000  -0.000000   0.000000   0.000000   0.008154
    44  H   -0.000000   0.000000   0.000000  -0.000001   0.000000   0.011071
              19         20         21         22         23         24
     1  C   -0.027645   0.000000  -0.000000  -0.000000  -0.000000   0.003290
     2  C   -0.025586  -0.000000   0.000000   0.000000   0.000000  -0.000315
     3  C   -0.000160  -0.000000  -0.000000  -0.000000  -0.000000  -0.000006
     4  C    0.000001   0.000002  -0.000000  -0.000000  -0.000000   0.000000
     5  C   -0.000000  -0.000067  -0.000000  -0.000000   0.000001  -0.000000
     6  C   -0.000000  -0.000547  -0.000007   0.000000   0.000043  -0.000000
     7  C    0.000000   0.014159  -0.000057   0.000002  -0.000095  -0.000000
     8  C    0.000000  -0.024077   0.001468   0.000075   0.001153   0.000000
     9  C   -0.000000  -0.021239   0.000087  -0.000002   0.000043  -0.000000
    10  C   -0.000000   0.000316  -0.000003  -0.000000  -0.000000  -0.000000
    11  C    0.000001  -0.000025  -0.000000   0.000000   0.000000   0.000000
    12  C   -0.000060  -0.000000  -0.000000  -0.000000   0.000000  -0.000000
    13  C    0.000142  -0.000000   0.000000   0.000000  -0.000000  -0.000026
    14  C    0.015642   0.000000  -0.000000  -0.000000   0.000000  -0.000037
    15  C   -0.000237  -0.000001   0.000000   0.000000   0.000000   0.000001
    16  C   -0.000001  -0.000066   0.000001  -0.000000  -0.000000  -0.000000
    17  C    0.375614   0.000000   0.000000  -0.000000  -0.000000  -0.016919
    18  C   -0.000000   0.537726  -0.040324   0.006845  -0.004097   0.000000
    19  C    5.182102  -0.000000   0.000000   0.000000  -0.000000   0.269601
    20  C   -0.000000   4.748763   0.429695  -0.057754  -0.070699   0.000000
    21  N    0.000000   0.429695   6.242721   0.407188   0.405547   0.000000
    22  C    0.000000  -0.057754   0.407188   4.485844  -0.058107   0.000000
    23  C   -0.000000  -0.070699   0.405547  -0.058107   4.481140   0.000000
    24  N    0.269601   0.000000   0.000000   0.000000   0.000000   5.716793
    25  O   -0.091935   0.000000   0.000000   0.000000   0.000000   0.413275
    26  O   -0.123436   0.000000   0.000000   0.000000   0.000000   0.443570
    27  H    0.009633  -0.000000  -0.000000   0.000000   0.000000   0.000024
    28  H    0.000020   0.000000  -0.000000   0.000000   0.000000  -0.000000
    29  H   -0.000000  -0.000001  -0.000000   0.000000   0.000000   0.000000
    30  H   -0.000000   0.002185  -0.000099  -0.000004  -0.000056   0.000000
    31  H    0.000000   0.006784  -0.000047   0.000083  -0.000017  -0.000000
    32  H    0.000000   0.000016  -0.000000  -0.000000   0.000000  -0.000000
    33  H   -0.000000   0.000000   0.000000   0.000000   0.000000  -0.000000
    34  H    0.002817   0.000000   0.000000   0.000000  -0.000000   0.000040
    35  H   -0.065201  -0.000000  -0.000000  -0.000000   0.000000  -0.016445
    36  H   -0.000000  -0.070735  -0.009341  -0.000042   0.009321   0.000000
    37  H    0.381001   0.000000   0.000000   0.000000  -0.000000  -0.027827
    38  H    0.000000   0.364019  -0.033827  -0.012755   0.007595   0.000000
    39  H    0.000000  -0.006371  -0.018447   0.388600   0.006464   0.000000
    40  H   -0.000000   0.001300  -0.036926   0.382471  -0.002283   0.000000
    41  H    0.000000   0.003488  -0.024551   0.389467  -0.005338   0.000000
    42  H    0.000000   0.007324  -0.020727  -0.006580   0.383935   0.000000
    43  H   -0.000000  -0.004522  -0.034105  -0.000909   0.380203   0.000000
    44  H   -0.000000  -0.012566  -0.019207   0.006108   0.384766   0.000000
              25         26         27         28         29         30
     1  C   -0.000111   0.001467  -0.030342   0.010187  -0.000073   0.000001
     2  C    0.000007   0.000027   0.383355  -0.048791   0.000743   0.000008
     3  C   -0.000000   0.000000  -0.053196   0.381309  -0.022439  -0.000351
     4  C   -0.000000  -0.000000   0.010420  -0.037791  -0.039437   0.009808
     5  C   -0.000000  -0.000000  -0.000346  -0.021362   0.380015  -0.060279
     6  C    0.000000   0.000000   0.000006   0.000842  -0.045748   0.374311
     7  C   -0.000000  -0.000000   0.000001  -0.000048   0.009917  -0.012951
     8  C    0.000000  -0.000000   0.000000  -0.000001  -0.000397  -0.049246
     9  C    0.000000  -0.000000  -0.000000   0.000000   0.000007  -0.000946
    10  C   -0.000000  -0.000000   0.000000  -0.000000   0.000000  -0.000010
    11  C   -0.000000   0.000000   0.000000   0.000005   0.000025  -0.000113
    12  C   -0.000000  -0.000001   0.000002  -0.000000   0.000001   0.000001
    13  C   -0.000000  -0.000026  -0.000166   0.000041   0.000005  -0.000000
    14  C   -0.000000  -0.000046   0.014265   0.000508  -0.000186   0.000024
    15  C    0.000000   0.000000  -0.000503   0.012714   0.013695  -0.000663
    16  C    0.000000   0.000000   0.000033  -0.000349   0.000029   0.017224
    17  C    0.011095   0.009361  -0.040072  -0.000324  -0.000001   0.000000
    18  C    0.000000   0.000000  -0.000000  -0.000000   0.000020   0.016723
    19  C   -0.091935  -0.123436   0.009633   0.000020  -0.000000  -0.000000
    20  C    0.000000   0.000000  -0.000000   0.000000  -0.000001   0.002185
    21  N    0.000000   0.000000  -0.000000  -0.000000  -0.000000  -0.000099
    22  C    0.000000   0.000000   0.000000   0.000000   0.000000  -0.000004
    23  C    0.000000   0.000000   0.000000   0.000000   0.000000  -0.000056
    24  N    0.413275   0.443570   0.000024  -0.000000   0.000000   0.000000
[...]
    37  H    0.000000   0.000000   0.000000  -0.000004   0.007898   0.000000
    38  H    0.000951   0.000065   0.000000  -0.000000   0.000000   0.010248
    39  H    0.000025  -0.000000   0.000000   0.000000  -0.000000   0.000019
    40  H   -0.000014   0.000000  -0.000000  -0.000000   0.000000  -0.000043
    41  H    0.000002  -0.000000  -0.000000   0.000000  -0.000000  -0.000000
    42  H    0.000000   0.000000  -0.000000  -0.000000   0.000000  -0.000340
    43  H   -0.000005   0.000000  -0.000000  -0.000000   0.000000  -0.000349
    44  H    0.000033  -0.000000   0.000000   0.000000  -0.000000   0.002570
              37         38         39         40         41         42
     1  C   -0.024390  -0.000000  -0.000000   0.000000  -0.000000   0.000000
     2  C    0.006479   0.000000   0.000000  -0.000000   0.000000   0.000000
     3  C    0.000990   0.000000   0.000000  -0.000000  -0.000000   0.000000
     4  C   -0.000070  -0.000000  -0.000000   0.000000  -0.000000  -0.000000
     5  C   -0.000000   0.000004   0.000000   0.000000  -0.000000   0.000000
     6  C    0.000000  -0.000010   0.000000  -0.000000  -0.000000   0.000000
     7  C   -0.000000  -0.000782  -0.000002   0.000001  -0.000000   0.000000
     8  C   -0.000000  -0.024754  -0.000122   0.000023   0.000003  -0.000061
     9  C    0.000000   0.008708   0.000043  -0.000018   0.000002   0.000001
    10  C    0.000000   0.000783   0.000002  -0.000000   0.000000   0.000000
    11  C   -0.000000  -0.000067  -0.000000   0.000000  -0.000000  -0.000000
    12  C    0.000002  -0.000001  -0.000000   0.000000  -0.000000  -0.000000
    13  C    0.000008   0.000000   0.000000  -0.000000   0.000000   0.000000
    14  C   -0.000636  -0.000000  -0.000000  -0.000000   0.000000  -0.000000
    15  C    0.000055   0.000001   0.000000  -0.000000   0.000000  -0.000000
    16  C    0.000000   0.000052   0.000000  -0.000000   0.000000   0.000000
    17  C   -0.027850  -0.000000  -0.000000   0.000000   0.000000  -0.000000
    18  C   -0.000000  -0.018379   0.000965   0.000802  -0.000562  -0.000182
    19  C    0.381001   0.000000   0.000000  -0.000000   0.000000   0.000000
    20  C    0.000000   0.364019  -0.006371   0.001300   0.003488   0.007324
    21  N    0.000000  -0.033827  -0.018447  -0.036926  -0.024551  -0.020727
    22  C    0.000000  -0.012755   0.388600   0.382471   0.389467  -0.006580
    23  C   -0.000000   0.007595   0.006464  -0.002283  -0.005338   0.383935
    24  N   -0.027827   0.000000   0.000000   0.000000   0.000000   0.000000
    25  O    0.011890   0.000000   0.000000   0.000000   0.000000   0.000000
    26  O    0.005316   0.000000   0.000000   0.000000   0.000000   0.000000
    27  H   -0.003815   0.000000   0.000000  -0.000000  -0.000000   0.000000
    28  H    0.000086  -0.000000  -0.000000   0.000000  -0.000000  -0.000000
    29  H   -0.000000   0.000000   0.000000  -0.000000   0.000000   0.000000
    30  H   -0.000000  -0.000054  -0.000001   0.000005  -0.000000   0.000000
    31  H    0.000000   0.000951   0.000025  -0.000014   0.000002   0.000000
    32  H    0.000000   0.000065  -0.000000   0.000000  -0.000000   0.000000
    33  H    0.000000   0.000000   0.000000  -0.000000  -0.000000  -0.000000
    34  H   -0.000004  -0.000000   0.000000  -0.000000   0.000000  -0.000000
    35  H    0.007898   0.000000  -0.000000   0.000000  -0.000000   0.000000
    36  H    0.000000   0.010248   0.000019  -0.000043  -0.000000  -0.000340
    37  H    0.678773   0.000000   0.000000   0.000000   0.000000  -0.000000
    38  H    0.000000   0.693894   0.006630  -0.000230   0.000616  -0.000380
    39  H    0.000000   0.006630   0.641011  -0.035076  -0.019140   0.000639
    40  H    0.000000  -0.000230  -0.035076   0.700439  -0.045074  -0.002582
    41  H    0.000000   0.000616  -0.019140  -0.045074   0.663696   0.006987
    42  H   -0.000000  -0.000380   0.000639  -0.002582   0.006987   0.660487
    43  H   -0.000000  -0.000460  -0.000636   0.008581  -0.002536  -0.036542
    44  H   -0.000000  -0.000148  -0.000329  -0.001033   0.001336  -0.018884
              43         44
     1  C    0.000000  -0.000000
     2  C   -0.000000   0.000000
     3  C    0.000000  -0.000000
     4  C    0.000000  -0.000000
     5  C    0.000002   0.000001
     6  C   -0.000092   0.000090
     7  C    0.000033  -0.000163
     8  C    0.000385   0.000868
     9  C   -0.000036   0.000057
    10  C   -0.000001   0.000002
    11  C    0.000000  -0.000000
    12  C    0.000000  -0.000000
    13  C   -0.000000  -0.000000
    14  C   -0.000000   0.000000
    15  C   -0.000000   0.000000
    16  C    0.000000  -0.000001
    17  C    0.000000   0.000000
    18  C    0.008154   0.011071
    19  C   -0.000000  -0.000000
    20  C   -0.004522  -0.012566
    21  N   -0.034105  -0.019207
    22  C   -0.000909   0.006108
    23  C    0.380203   0.384766
    24  N    0.000000   0.000000
    25  O    0.000000   0.000000
    26  O    0.000000   0.000000
    27  H   -0.000000   0.000000
    28  H    0.000000  -0.000000
    29  H   -0.000001   0.000000
    30  H    0.000554  -0.000366
    31  H   -0.000005   0.000033
    32  H    0.000000  -0.000000
    33  H   -0.000000   0.000000
    34  H   -0.000000   0.000000
    35  H    0.000000  -0.000000
    36  H   -0.000349   0.002570
    37  H   -0.000000  -0.000000
    38  H   -0.000460  -0.000148
    39  H   -0.000636  -0.000329
    40  H    0.008581  -0.001033
    41  H   -0.002536   0.001336
    42  H   -0.036542  -0.018884
    43  H    0.704270  -0.047283
    44  H   -0.047283   0.646720
 Mulliken charges:
               1
     1  C    0.010592
     2  C    0.012265
     3  C    0.031228
     4  C    0.021763
     5  C    0.041370
     6  C   -0.005626
     7  C    0.006886
     8  C    0.037337
     9  C   -0.001379
    10  C    0.031228
    11  C    0.016669
    12  C    0.048527
    13  C   -0.025969
    14  C    0.032673
    15  C    0.069914
    16  C    0.070341
    17  C    0.064352
    18  C   -0.102617
    19  C    0.097686
    20  C    0.152889
    21  N   -0.249036
    22  C    0.069471
    23  C    0.080480
    24  N    0.214981
    25  O   -0.262374
    26  O   -0.265077
    27  H   -0.037236
    28  H   -0.046955
    29  H   -0.050679
    30  H   -0.045384
    31  H   -0.046903
    32  H   -0.047216
    33  H   -0.046617
    34  H   -0.034188
    35  H    0.000596
    36  H   -0.029915
    37  H   -0.007905
    38  H   -0.001720
    39  H    0.035725
    40  H    0.029657
    41  H    0.031603
    42  H    0.026905
    43  H    0.025296
    44  H    0.046359
 Sum of Mulliken charges =  -0.00000
 Mulliken charges with hydrogens summed into heavy atoms:
               1
     1  C    0.010592
     2  C   -0.024971
     3  C   -0.015727
     4  C    0.021763
     5  C   -0.009309
     6  C   -0.051010
     7  C    0.006886
     8  C    0.037337
     9  C   -0.048282
    10  C   -0.015988
    11  C    0.016669
    12  C    0.001910
    13  C   -0.060157
    14  C    0.032673
    15  C    0.069914
    16  C    0.070341
    17  C    0.064947
    18  C   -0.132531
    19  C    0.089781
    20  C    0.151170
    21  N   -0.249036
    22  C    0.166456
    23  C    0.179041
    24  N    0.214981
    25  O   -0.262374
    26  O   -0.265077
 Electronic spatial extent (au):  <R**2>=          14892.9986
 Charge=             -0.0000 electrons
 Dipole moment (field-independent basis, Debye):
    X=            -12.1629    Y=              1.6599    Z=              0.2899  Tot=             12.2791
 Quadrupole moment (field-independent basis, Debye-Ang):
   XX=           -160.3260   YY=           -136.6559   ZZ=           -155.2207
   XY=              8.2362   XZ=             -3.2299   YZ=             -1.1950
 Traceless Quadrupole moment (field-independent basis, Debye-Ang):
   XX=             -9.5918   YY=             14.0783   ZZ=             -4.4865
   XY=              8.2362   XZ=             -3.2299   YZ=             -1.1950
 Octapole moment (field-independent basis, Debye-Ang**2):
  XXX=           -872.0447  YYY=              1.8351  ZZZ=              2.9771  XYY=            -12.5757
  XXY=             70.0702  XXZ=             15.1128  XZZ=             18.7797  YZZ=             -1.9998
  YYZ=              0.2961  XYZ=             12.2740
 Hexadecapole moment (field-independent basis, Debye-Ang**3):
 XXXX=         -18791.1940 YYYY=          -1956.0069 ZZZZ=           -233.5505 XXXY=            277.9304
 XXXZ=           -206.1855 YYYX=             34.7895 YYYZ=              6.1148 ZZZX=             -0.8022
 ZZZY=             -5.6833 XXYY=          -3165.7119 XXZZ=          -2885.3614 YYZZ=           -421.4820
 XXYZ=            -72.3770 YYXZ=              2.3681 ZZXY=            -28.9479
 N-N= 2.038663433068D+03 E-N=-6.654894500682D+03  KE= 1.101777680089D+03
  Exact polarizability:     752.897      24.008     287.166      -2.344       1.255     102.424
 Approx polarizability:    1211.525      85.153     560.424       5.279       5.945     168.903
 No NMR shielding tensors so no spin-rotation constants.
 Leave Link  601 at Thu Aug  7 17:46:32 2025, MaxMem=  1342177280 cpu:               3.1 elap:               0.4
 (Enter /opt/bwhpc/common/chem/gaussian/g16.C.01/x86_64-Intel-avx2-source/g16/l9999.exe)

 ----------------------------------------------------------------------

 Electric dipole moment (input orientation):
 (Debye = 10**-18 statcoulomb cm , SI units = C m)
                  (au)            (Debye)         (10**-30 SI)
   Tot        0.483097D+01      0.122791D+02      0.409586D+02
   x          0.306133D+01      0.778111D+01      0.259550D+02
   y         -0.373715D+01     -0.949888D+01     -0.316849D+02
   z         -0.154019D-01     -0.391477D-01     -0.130583D+00

 Dipole polarizability, Alpha (input orientation).
 (esu units = cm**3 , SI units = C**2 m**2 J**-1)
 Alpha(0;0):
               (au)            (10**-24 esu)      (10**-40 SI)
   iso        0.380829D+03      0.564330D+02      0.627902D+02
   aniso      0.582088D+03      0.862565D+02      0.959733D+02
   xx         0.393401D+03      0.582961D+02      0.648631D+02
   yx        -0.196931D+03     -0.291822D+02     -0.324696D+02
   yy         0.646261D+03      0.957661D+02      0.106554D+03
   zx         0.221482D+01      0.328203D+00      0.365175D+00
   zy        -0.143416D+02     -0.212520D+01     -0.236461D+01
   zz         0.102824D+03      0.152369D+02      0.169534D+02

 First dipole hyperpolarizability, Beta (input orientation).
 ||, _|_  parallel and perpendicular components, (z) with respect to z axis,
 vector components x,y,z.  Values do not include the 1/n! factor of 1/2.
 (esu units = statvolt**-1 cm**4 , SI units = C**3 m**3 J**-2)
 Beta(0;0,0):
               (au)            (10**-30 esu)      (10**-50 SI)
   || (z)    -0.433332D+03     -0.374365D+01     -0.138942D+01
   _|_(z)    -0.144444D+03     -0.124788D+01     -0.463140D+00
   x         -0.389885D+05     -0.336830D+03     -0.125011D+03
   y          0.551525D+05      0.476475D+03      0.176839D+03
   z         -0.216666D+04     -0.187183D+02     -0.694710D+01
   ||         0.135153D+05      0.116762D+03      0.433350D+02
   xxx       -0.425130D+04     -0.367280D+02     -0.136312D+02
   xxy        0.633708D+04      0.547474D+02      0.203190D+02
   yxy       -0.886639D+04     -0.765987D+02     -0.284288D+02
   yyy        0.121782D+05      0.105211D+03      0.390478D+02
   xxz       -0.218947D+03     -0.189154D+01     -0.702025D+00
   yxz        0.292414D+03      0.252623D+01      0.937584D+00
   yyz       -0.473190D+03     -0.408799D+01     -0.151722D+01
   zxz        0.121542D+03      0.105003D+01      0.389707D+00
   zyz       -0.131147D+03     -0.113301D+01     -0.420506D+00
   zzz       -0.300830D+02     -0.259894D+00     -0.964570D-01

 ----------------------------------------------------------------------

 Dipole orientation:
     6          1.58064270          0.96537505         -7.55038791
     6          3.67317665          2.52338916         -6.97510837
     6          4.32184391          3.11532447         -4.51575013
     6          2.89555082          2.17686006         -2.46560702
     6          3.54397645          2.74353663          0.09632955
     6          2.14874420          1.83098736          2.07033068
     6         -0.04096790          0.27835525          1.68488100
     6         -1.52864277         -0.66387955          3.74527925
     6         -3.61983331         -2.22087726          3.15576722
     6         -4.23780044         -2.86104884          0.69334463
     6         -2.82107857         -1.94414039         -1.36471066
     6         -3.44661541         -2.53838487         -3.92441056
     6         -2.06708667         -1.62444052         -5.90771714
     6          0.08902853         -0.02162706         -5.51698891
     6          0.75620708          0.60064842         -2.95452081
     6         -0.70098891         -0.34933758         -0.87208865
     6          0.96239707          0.37830334        -10.16279493
     6         -0.93152222         -0.02442637          6.36167461
     6          2.17286007          1.17186156        -12.25992527
     6         -1.68626451         -1.40100073          8.40712812
     7         -1.35708333         -0.80123092         10.90149732
     6         -1.54248003         -2.76289988         12.80615503
     6         -0.06812790          1.50664121         11.59972023
     7          1.29492555          0.39737683        -14.74154031
     8          2.50784298          1.21457347        -16.54010116
     8         -0.55221765         -0.98819292        -14.92011569
     1          4.81895458          3.28202734         -8.51399222
     1          5.95638860          4.32027408         -4.13639409
     1          5.20354702          3.92137582          0.45441495
     1          2.74053683          2.28216039          3.99144521
     1         -4.83482111         -2.89022384          4.68372091
     1         -5.88084226         -4.05999383          0.32502977
     1         -5.07709595         -3.75744200         -4.28179373
     1         -2.63172985         -2.13809399         -7.81984119
     1         -0.65547384         -0.83990963        -10.55073974
     1          0.20598635          1.66201276          6.68530130
     1          3.82273388          2.39096407        -12.39079661
     1         -2.67381557         -3.19651037          8.12264021
     1         -2.79968951         -4.27827353         12.13952104
     1          0.31239996         -3.62436781         13.26322782
     1         -2.34056080         -1.99104283         14.56912527
     1         -0.32811947          1.86168705         13.63090295
     1          1.98969624          1.43244314         11.20831639
     1         -0.86009820          3.12160029         10.55105897

 Electric dipole moment (dipole orientation):
 (Debye = 10**-18 statcoulomb cm , SI units = C m)
                  (au)            (Debye)         (10**-30 SI)
   Tot        0.483097D+01      0.122791D+02      0.409586D+02
   x          0.000000D+00      0.000000D+00      0.000000D+00
   y          0.000000D+00      0.000000D+00      0.000000D+00
   z          0.483097D+01      0.122791D+02      0.409586D+02

 Dipole polarizability, Alpha (dipole orientation).
 (esu units = cm**3 , SI units = C**2 m**2 J**-1)
 Alpha(0;0):
               (au)            (10**-24 esu)      (10**-40 SI)
   iso        0.380829D+03      0.564330D+02      0.627902D+02
   aniso      0.582088D+03      0.862565D+02      0.959733D+02
   xx         0.229468D+03      0.340036D+02      0.378341D+02
   yx         0.960247D+02      0.142294D+02      0.158323D+02
   yy         0.175306D+03      0.259777D+02      0.289041D+02
   zx        -0.750825D+02     -0.111261D+02     -0.123794D+02
   zy        -0.427322D+02     -0.633226D+01     -0.704559D+01
   zz         0.737713D+03      0.109318D+03      0.121632D+03

 First dipole hyperpolarizability, Beta (dipole orientation).
 ||, _|_  parallel and perpendicular components, (z) with respect to z axis,
 vector components x,y,z.  Values do not include the 1/n! factor of 1/2.
 (esu units = statvolt**-1 cm**4 , SI units = C**3 m**3 J**-2)
 Beta(0;0,0):
               (au)            (10**-30 esu)      (10**-50 SI)
   || (z)    -0.134729D+05     -0.116396D+03     -0.431991D+02
   _|_(z)    -0.449097D+04     -0.387985D+02     -0.143997D+02
   x          0.521361D+04      0.450415D+02      0.167167D+02
   y          0.119234D+04      0.103009D+02      0.382308D+01
   z         -0.673646D+05     -0.581978D+03     -0.215995D+03
   ||         0.135153D+05      0.116762D+03      0.433350D+02
   xxx        0.924829D+02      0.798980D+00      0.296534D+00
   xxy        0.202375D+02      0.174836D+00      0.648888D-01
   yxy        0.158500D+02      0.136932D+00      0.508210D-01
   yyy       -0.122917D+02     -0.106191D+00     -0.394116D-01
   xxz        0.454230D+02      0.392420D+00      0.145643D+00
   yxz       -0.336019D+02     -0.290294D+00     -0.107740D+00
   yyz        0.205459D+03      0.177500D+01      0.658775D+00
   zxz        0.162954D+04      0.140779D+02      0.522489D+01
   zyz        0.389502D+03      0.336499D+01      0.124888D+01
   zzz       -0.227058D+05     -0.196160D+03     -0.728028D+02

 ----------------------------------------------------------------------
 Unable to Open any file for archive entry.
 1\1\GINC-N0925\SP\RB3LYP\CC-pVDZ\C22H18N2O2\KA_PR7831\07-Aug-2025\0\\#
 P b3lyp/cc-pvdz polar\\p1\\0,1\C,0,-1.7811853,3.7063509,-0.122116\C,0,
 -0.5215787,4.3449124,-0.1869911\C,0,0.6621492,3.6321401,-0.1663442\C,0
 ,0.654697,2.2232393,-0.0756911\C,0,1.8661732,1.4630705,-0.0654762\C,0,
 1.8497474,0.0989033,0.0254983\C,0,0.6244893,-0.6415185,0.1248434\C,0,0
 .6000981,-2.0713886,0.2345191\C,0,-0.6635921,-2.7035593,0.2993838\C,0,
 -1.8511992,-1.9917447,0.2487012\C,0,-1.8550344,-0.5866546,0.1524468\C,
 0,-3.0657019,0.1727248,0.1232675\C,0,-3.0569958,1.5369097,0.0381457\C,
 0,-1.8275252,2.2770403,-0.0293998\C,0,-0.5954759,1.5332927,-0.0027142\
 C,0,-0.6048642,0.1006952,0.0935307\C,0,-3.0053566,4.490721,-0.1507151\
 C,0,1.8325629,-2.8518108,0.2916384\C,0,-3.1195733,5.8320434,-0.228233\
 C,0,1.9217361,-4.1766847,-0.0222395\N,0,3.0182853,-4.9852745,0.1086898
 \C,0,3.0878951,-6.2280881,-0.6353866\C,0,4.2603286,-4.4475757,0.620037
 3\N,0,-4.4307195,6.4556556,-0.2466902\O,0,-4.4378887,7.680393,-0.31585
 82\O,0,-5.4348778,5.7550285,-0.1941799\H,0,-0.4781248,5.4334912,-0.258
 0547\H,0,1.6194505,4.1570499,-0.2218409\H,0,2.8171948,1.9974668,-0.140
 427\H,0,2.7983802,-0.4381031,0.0085025\H,0,-0.7093446,-3.7867905,0.430
 2268\H,0,-2.8059205,-2.5221157,0.3094867\H,0,-4.018022,-0.3631058,0.17
 15892\H,0,-4.0102943,2.0640871,0.0204451\H,0,-3.9637207,3.9708612,-0.1
 062247\H,0,2.7394141,-2.3316051,0.600012\H,0,-2.3248411,6.5728033,-0.2
 822156\H,0,1.0470119,-4.696955,-0.4256142\H,0,2.0727142,-6.6028518,-0.
 8330141\H,0,3.6031242,-6.1146782,-1.610813\H,0,3.6277497,-6.9942322,-0
 .0547689\H,0,4.9516905,-5.2716359,0.8491366\H,0,4.7600429,-3.7675189,-
 0.0997332\H,0,4.0786872,-3.8828475,1.5484834\\Version=ES64L-G16RevC.01
 \State=1-A\HF=-1109.1143006\RMSD=9.183e-09\Dipole=3.0613251,-3.7371479
 ,-0.0154019\Polar=393.4012995,-196.9312397,646.2613626,2.2148228,-14.3
 415696,102.8240136\HyperPolar=-4251.304006,6337.079541,-8866.3878895,1
 2178.2412913,-218.9474087,292.413777,-473.1896021,121.5418725,-131.147
 4387,-30.0830216\Quadrupole=0.1733979,3.3015234,-3.4749213,10.6083568,
 -0.8456293,2.2506783\PG=C01 [X(C22H18N2O2)]\\@
 The archive entry for this job was punched.


 SUCCESS IS COUNTED SWEETEST
 BY THOSE WHO NE'ER SUCCEED.
 TO COMPREHEND NECTAR
 REQUIRES SOREST NEED.
           EMILY DICKINSON
 Job cpu time:       0 days  0 hours 59 minutes  7.3 seconds.
 Elapsed time:       0 days  0 hours  7 minutes 24.9 seconds.
 File lengths (MBytes):  RWF=    114 Int=      0 D2E=      0 Chk=     15 Scr=      1
 Normal termination of Gaussian 16 at Thu Aug  7 17:46:33 2025.
