 Entering Gaussian System, Link 0=g16
 Initial command:
 /opt/bwhpc/common/chem/gaussian/g16.C.01/x86_64-Intel-avx2-source/g16/l1.exe "/tmp/ka_pr7831.18367570/g16.18367570.250815_161110/Gau-1039013.inp" -scrdir="/tmp/ka_pr7831.18367570/g16.18367570.250815_161110/"
 Entering Link 1 = /opt/bwhpc/common/chem/gaussian/g16.C.01/x86_64-Intel-avx2-source/g16/l1.exe PID=   1039015.
  
 Copyright (c) 1988-2019, Gaussian, Inc.  All Rights Reserved.
  
 This is part of the Gaussian(R) 16 program.  It is based on
 the Gaussian(R) 09 system (copyright 2009, Gaussian, Inc.),
 the Gaussian(R) 03 system (copyright 2003, Gaussian, Inc.),
 the Gaussian(R) 98 system (copyright 1998, Gaussian, Inc.),
 the Gaussian(R) 94 system (copyright 1995, Gaussian, Inc.),
 the Gaussian 92(TM) system (copyright 1992, Gaussian, Inc.),
 the Gaussian 90(TM) system (copyright 1990, Gaussian, Inc.),
 the Gaussian 88(TM) system (copyright 1988, Gaussian, Inc.),
 the Gaussian 86(TM) system (copyright 1986, Carnegie Mellon
 University), and the Gaussian 82(TM) system (copyright 1983,
 Carnegie Mellon University). Gaussian is a federally registered
 trademark of Gaussian, Inc.
  
 This software contains proprietary and confidential information,
 including trade secrets, belonging to Gaussian, Inc.
  
 This software is provided under written license and may be
 used, copied, transmitted, or stored only in accord with that
 written license.
  
 The following legend is applicable only to US Government
 contracts under FAR:
  
                    RESTRICTED RIGHTS LEGEND
  
 Use, reproduction and disclosure by the US Government is
 subject to restrictions as set forth in subparagraphs (a)
 and (c) of the Commercial Computer Software - Restricted
 Rights clause in FAR 52.227-19.
  
 Gaussian, Inc.
 340 Quinnipiac St., Bldg. 40, Wallingford CT 06492
  
  
 ---------------------------------------------------------------
 Warning -- This program may not be used in any manner that
 competes with the business of Gaussian, Inc. or will provide
 assistance to any competitor of Gaussian, Inc.  The licensee
 of this program is prohibited from giving any competitor of
 Gaussian, Inc. access to this program.  By using this program,
 the user acknowledges that Gaussian, Inc. is engaged in the
 business of creating and licensing software in the field of
 computational chemistry and represents and warrants to the
 licensee that it is not a competitor of Gaussian, Inc. and that
 it will not use this program in any manner prohibited above.
 ---------------------------------------------------------------
  

 Cite this work as:
 Gaussian 16, Revision C.01,
 M. J. Frisch, G. W. Trucks, H. B. Schlegel, G. E. Scuseria, 
 M. A. Robb, J. R. Cheeseman, G. Scalmani, V. Barone, 
 G. A. Petersson, H. Nakatsuji, X. Li, M. Caricato, A. V. Marenich, 
 J. Bloino, B. G. Janesko, R. Gomperts, B. Mennucci, H. P. Hratchian, 
 J. V. Ortiz, A. F. Izmaylov, J. L. Sonnenberg, D. Williams-Young, 
 F. Ding, F. Lipparini, F. Egidi, J. Goings, B. Peng, A. Petrone, 
 T. Henderson, D. Ranasinghe, V. G. Zakrzewski, J. Gao, N. Rega, 
 G. Zheng, W. Liang, M. Hada, M. Ehara, K. Toyota, R. Fukuda, 
 J. Hasegawa, M. Ishida, T. Nakajima, Y. Honda, O. Kitao, H. Nakai, 
 T. Vreven, K. Throssell, J. A. Montgomery, Jr., J. E. Peralta, 
 F. Ogliaro, M. J. Bearpark, J. J. Heyd, E. N. Brothers, K. N. Kudin, 
 V. N. Staroverov, T. A. Keith, R. Kobayashi, J. Normand, 
 K. Raghavachari, A. P. Rendell, J. C. Burant, S. S. Iyengar, 
 J. Tomasi, M. Cossi, J. M. Millam, M. Klene, C. Adamo, R. Cammi, 
 J. W. Ochterski, R. L. Martin, K. Morokuma, O. Farkas, 
 J. B. Foresman, and D. J. Fox, Gaussian, Inc., Wallingford CT, 2019.
 
 ******************************************
 Gaussian 16:  ES64L-G16RevC.01  3-Jul-2019
                15-Aug-2025 
 ******************************************
 %chk=bmk.chk
 %mem=10GB
 %nprocs=8
 Will use up to    8 processors via shared memory.
 --------------------
 #P bmk/cc-pvdz polar
 --------------------
 1/38=1,172=1/1;
 2/12=2,17=6,18=5,40=1/2;
 3/5=16,11=2,25=1,30=1,74=-34/1,2,3;
 4//1;
 5/5=2,38=5,98=1/2;
 8/6=4,10=90,11=11/1;
 10/6=1,13=10/2;
 6/7=2,8=2,9=2,10=2,28=1/1;
 99/5=1,9=1/99;
 Leave Link    1 at Fri Aug 15 16:11:11 2025, MaxMem=  1342177280 cpu:               0.2 elap:               0.0
 (Enter /opt/bwhpc/common/chem/gaussian/g16.C.01/x86_64-Intel-avx2-source/g16/l101.exe)
 -
 p
 -
 Symbolic Z-matrix:
 Charge =  0 Multiplicity = 1
 C                    -1.78119   3.70635  -0.12212 
 C                    -0.52158   4.34491  -0.18699 
 C                     0.66215   3.63214  -0.16634 
 C                     0.6547    2.22324  -0.07569 
 C                     1.86617   1.46307  -0.06548 
 C                     1.84975   0.0989    0.0255 
 C                     0.62449  -0.64152   0.12484 
 C                     0.6001   -2.07139   0.23452 
 C                    -0.66359  -2.70356   0.29938 
 C                    -1.8512   -1.99174   0.2487 
 C                    -1.85503  -0.58665   0.15245 
 C                    -3.0657    0.17272   0.12327 
 C                    -3.057     1.53691   0.03815 
 C                    -1.82753   2.27704  -0.0294 
 C                    -0.59548   1.53329  -0.00271 
 C                    -0.60486   0.1007    0.09353 
 C                    -3.00536   4.49072  -0.15072 
 C                     1.83256  -2.85181   0.29164 
 C                    -3.11957   5.83204  -0.22823 
 C                     1.92174  -4.17668  -0.02224 
 N                     3.01829  -4.98527   0.10869 
 C                     3.0879   -6.22809  -0.63539 
 C                     4.26033  -4.44758   0.62004 
 N                    -4.43072   6.45566  -0.24669 
 O                    -4.43789   7.68039  -0.31586 
 O                    -5.43488   5.75503  -0.19418 
 H                    -0.47812   5.43349  -0.25805 
 H                     1.61945   4.15705  -0.22184 
 H                     2.81719   1.99747  -0.14043 
 H                     2.79838  -0.4381    0.0085 
 H                    -0.70934  -3.78679   0.43023 
 H                    -2.80592  -2.52212   0.30949 
 H                    -4.01802  -0.36311   0.17159 
 H                    -4.01029   2.06409   0.02045 
 H                    -3.96372   3.97086  -0.10622 
 H                     2.73941  -2.33161   0.60001 
 H                    -2.32484   6.5728   -0.28222 
 H                     1.04701  -4.69695  -0.42561 
 H                     2.07271  -6.60285  -0.83301 
 H                     3.60312  -6.11468  -1.61081 
 H                     3.62775  -6.99423  -0.05477 
 H                     4.95169  -5.27164   0.84914 
 H                     4.76004  -3.76752  -0.09973 
 H                     4.07869  -3.88285   1.54848 
 
 ITRead=  0  0  0  0  0  0  0  0  0  0  0  0  0  0  0  0  0  0  0  0
 ITRead=  0  0  0  0  0  0  0  0  0  0  0  0  0  0  0  0  0  0  0  0
 ITRead=  0  0  0  0
 MicOpt= -1 -1 -1 -1 -1 -1 -1 -1 -1 -1 -1 -1 -1 -1 -1 -1 -1 -1 -1 -1
 MicOpt= -1 -1 -1 -1 -1 -1 -1 -1 -1 -1 -1 -1 -1 -1 -1 -1 -1 -1 -1 -1
 MicOpt= -1 -1 -1 -1
 NAtoms=     44 NQM=       44 NQMF=       0 NMMI=      0 NMMIF=      0
                NMic=       0 NMicF=      0.
                    Isotopes and Nuclear Properties:
 (Nuclear quadrupole moments (NQMom) in fm**2, nuclear magnetic moments (NMagM)
  in nuclear magnetons)

  Atom         1           2           3           4           5           6           7           8           9          10
 IAtWgt=          12          12          12          12          12          12          12          12          12          12
 AtmWgt=  12.0000000  12.0000000  12.0000000  12.0000000  12.0000000  12.0000000  12.0000000  12.0000000  12.0000000  12.0000000
 NucSpn=           0           0           0           0           0           0           0           0           0           0
 AtZEff=  -0.0000000  -0.0000000  -0.0000000  -0.0000000  -0.0000000  -0.0000000  -0.0000000  -0.0000000  -0.0000000  -0.0000000
 NQMom=    0.0000000   0.0000000   0.0000000   0.0000000   0.0000000   0.0000000   0.0000000   0.0000000   0.0000000   0.0000000
 NMagM=    0.0000000   0.0000000   0.0000000   0.0000000   0.0000000   0.0000000   0.0000000   0.0000000   0.0000000   0.0000000
 AtZNuc=   6.0000000   6.0000000   6.0000000   6.0000000   6.0000000   6.0000000   6.0000000   6.0000000   6.0000000   6.0000000

  Atom        11          12          13          14          15          16          17          18          19          20
 IAtWgt=          12          12          12          12          12          12          12          12          12          12
 AtmWgt=  12.0000000  12.0000000  12.0000000  12.0000000  12.0000000  12.0000000  12.0000000  12.0000000  12.0000000  12.0000000
 NucSpn=           0           0           0           0           0           0           0           0           0           0
 AtZEff=  -0.0000000  -0.0000000  -0.0000000  -0.0000000  -0.0000000  -0.0000000  -0.0000000  -0.0000000  -0.0000000  -0.0000000
 NQMom=    0.0000000   0.0000000   0.0000000   0.0000000   0.0000000   0.0000000   0.0000000   0.0000000   0.0000000   0.0000000
 NMagM=    0.0000000   0.0000000   0.0000000   0.0000000   0.0000000   0.0000000   0.0000000   0.0000000   0.0000000   0.0000000
 AtZNuc=   6.0000000   6.0000000   6.0000000   6.0000000   6.0000000   6.0000000   6.0000000   6.0000000   6.0000000   6.0000000

  Atom        21          22          23          24          25          26          27          28          29          30
 IAtWgt=          14          12          12          14          16          16           1           1           1           1
 AtmWgt=  14.0030740  12.0000000  12.0000000  14.0030740  15.9949146  15.9949146   1.0078250   1.0078250   1.0078250   1.0078250
 NucSpn=           2           0           0           2           0           0           1           1           1           1
 AtZEff=  -0.0000000  -0.0000000  -0.0000000  -0.0000000  -0.0000000  -0.0000000  -0.0000000  -0.0000000  -0.0000000  -0.0000000
 NQMom=    2.0440000   0.0000000   0.0000000   2.0440000   0.0000000   0.0000000   0.0000000   0.0000000   0.0000000   0.0000000
 NMagM=    0.4037610   0.0000000   0.0000000   0.4037610   0.0000000   0.0000000   2.7928460   2.7928460   2.7928460   2.7928460
 AtZNuc=   7.0000000   6.0000000   6.0000000   7.0000000   8.0000000   8.0000000   1.0000000   1.0000000   1.0000000   1.0000000

  Atom        31          32          33          34          35          36          37          38          39          40
 IAtWgt=           1           1           1           1           1           1           1           1           1           1
 AtmWgt=   1.0078250   1.0078250   1.0078250   1.0078250   1.0078250   1.0078250   1.0078250   1.0078250   1.0078250   1.0078250
 NucSpn=           1           1           1           1           1           1           1           1           1           1
 AtZEff=  -0.0000000  -0.0000000  -0.0000000  -0.0000000  -0.0000000  -0.0000000  -0.0000000  -0.0000000  -0.0000000  -0.0000000
 NQMom=    0.0000000   0.0000000   0.0000000   0.0000000   0.0000000   0.0000000   0.0000000   0.0000000   0.0000000   0.0000000
 NMagM=    2.7928460   2.7928460   2.7928460   2.7928460   2.7928460   2.7928460   2.7928460   2.7928460   2.7928460   2.7928460
 AtZNuc=   1.0000000   1.0000000   1.0000000   1.0000000   1.0000000   1.0000000   1.0000000   1.0000000   1.0000000   1.0000000

  Atom        41          42          43          44
 IAtWgt=           1           1           1           1
 AtmWgt=   1.0078250   1.0078250   1.0078250   1.0078250
 NucSpn=           1           1           1           1
 AtZEff=  -0.0000000  -0.0000000  -0.0000000  -0.0000000
 NQMom=    0.0000000   0.0000000   0.0000000   0.0000000
 NMagM=    2.7928460   2.7928460   2.7928460   2.7928460
 AtZNuc=   1.0000000   1.0000000   1.0000000   1.0000000
 Leave Link  101 at Fri Aug 15 16:11:11 2025, MaxMem=  1342177280 cpu:               0.8 elap:               0.1
 (Enter /opt/bwhpc/common/chem/gaussian/g16.C.01/x86_64-Intel-avx2-source/g16/l202.exe)
                          Input orientation:                          
 ---------------------------------------------------------------------
 Center     Atomic      Atomic             Coordinates (Angstroms)
 Number     Number       Type             X           Y           Z
 ---------------------------------------------------------------------
      1          6           0       -1.781185    3.706351   -0.122116
      2          6           0       -0.521579    4.344912   -0.186991
      3          6           0        0.662149    3.632140   -0.166344
      4          6           0        0.654697    2.223239   -0.075691
      5          6           0        1.866173    1.463071   -0.065476
      6          6           0        1.849747    0.098903    0.025498
      7          6           0        0.624489   -0.641519    0.124843
      8          6           0        0.600098   -2.071389    0.234519
      9          6           0       -0.663592   -2.703559    0.299384
     10          6           0       -1.851199   -1.991745    0.248701
     11          6           0       -1.855034   -0.586655    0.152447
     12          6           0       -3.065702    0.172725    0.123268
     13          6           0       -3.056996    1.536910    0.038146
     14          6           0       -1.827525    2.277040   -0.029400
     15          6           0       -0.595476    1.533293   -0.002714
     16          6           0       -0.604864    0.100695    0.093531
     17          6           0       -3.005357    4.490721   -0.150715
     18          6           0        1.832563   -2.851811    0.291638
     19          6           0       -3.119573    5.832043   -0.228233
     20          6           0        1.921736   -4.176685   -0.022240
     21          7           0        3.018285   -4.985275    0.108690
     22          6           0        3.087895   -6.228088   -0.635387
     23          6           0        4.260329   -4.447576    0.620037
     24          7           0       -4.430720    6.455656   -0.246690
     25          8           0       -4.437889    7.680393   -0.315858
     26          8           0       -5.434878    5.755028   -0.194180
     27          1           0       -0.478125    5.433491   -0.258055
     28          1           0        1.619451    4.157050   -0.221841
     29          1           0        2.817195    1.997467   -0.140427
     30          1           0        2.798380   -0.438103    0.008503
     31          1           0       -0.709345   -3.786791    0.430227
     32          1           0       -2.805921   -2.522116    0.309487
     33          1           0       -4.018022   -0.363106    0.171589
     34          1           0       -4.010294    2.064087    0.020445
     35          1           0       -3.963721    3.970861   -0.106225
     36          1           0        2.739414   -2.331605    0.600012
     37          1           0       -2.324841    6.572803   -0.282216
     38          1           0        1.047012   -4.696955   -0.425614
     39          1           0        2.072714   -6.602852   -0.833014
     40          1           0        3.603124   -6.114678   -1.610813
     41          1           0        3.627750   -6.994232   -0.054769
     42          1           0        4.951691   -5.271636    0.849137
     43          1           0        4.760043   -3.767519   -0.099733
     44          1           0        4.078687   -3.882848    1.548483
 ---------------------------------------------------------------------
                    Distance matrix (angstroms):
                    1          2          3          4          5
     1  C    0.000000
     2  C    1.413711   0.000000
     3  C    2.444861   1.381913   0.000000
     4  C    2.852244   2.428479   1.411834   0.000000
     5  C    4.282375   3.744481   2.482884   1.430257   0.000000
     6  C    5.120463   4.867950   3.732419   2.439506   1.367296
     7  C    4.975161   5.125935   4.283733   2.871927   2.450978
     8  C    6.259391   6.527231   5.717935   4.306163   3.766344
     9  C    6.520247   7.066660   6.489652   5.113894   4.888112
    10  C    5.710578   6.489294   6.173918   4.914350   5.084615
    11  C    4.302410   5.119929   4.923014   3.774427   4.253969
    12  C    3.767852   4.896527   5.093948   4.252712   5.101373
    13  C    2.521875   3.789974   4.273622   3.776330   4.924813
    14  C    1.433064   2.450801   2.837874   2.483237   3.782493
    15  C    2.478376   2.818621   2.452255   1.429785   2.463450
    16  C    3.798814   4.254293   3.760846   2.473929   2.826195
    17  C    1.454184   2.488318   3.766697   4.306169   5.736352
    18  C    7.499324   7.587087   6.604637   5.222876   4.329765
    19  C    2.514182   2.993800   4.375481   5.224160   6.631145
    20  C    8.709986   8.866485   7.911073   6.524360   5.640195
    21  N    9.931392   9.983509   8.937945   7.588361   6.552774
    22  C   11.075399  11.181131  10.165055   8.812414   7.808414
    23  C   10.175323  10.041204   8.879589   7.614748   6.413864
    24  N    3.820239   4.442993   5.823745   6.618463   8.038010
    25  O    4.784205   5.145826   6.513148   7.468108   8.857708
    26  O    4.189480   5.111652   6.456095   7.040632   8.470113
    27  H    2.167824   1.091761   2.133893   3.409143   4.614874
    28  H    3.431821   2.149538   1.093177   2.166041   2.709769
    29  H    4.905682   4.081676   2.705005   2.175215   1.093453
    30  H    6.177862   5.825597   4.600102   3.418364   2.118713
    31  H    7.589538   8.157255   7.568185   6.183609   5.868565
    32  H    6.326939   7.254018   7.080169   5.885799   6.152298
    33  H    4.652975   5.875298   6.162807   5.346460   6.165620
    34  H    2.772414   4.173288   4.932080   4.668695   5.907747
    35  H    2.198563   3.463348   4.638644   4.938107   6.346522
    36  H    7.577216   7.471903   6.361493   5.054624   3.950315
    37  H    2.921942   2.867808   4.193213   5.276268   6.612182
    38  H    8.871661   9.180021   8.342012   6.940133   6.224680
    39  H   11.028943  11.269483  10.353222   8.971298   8.104991
    40  H   11.298656  11.333291  10.282815   8.976118   7.926370
    41  H   11.990146  12.075206  11.032997   9.685105   8.638821
    42  H   11.264067  11.113426   9.935220   8.688649   7.464128
    43  H    9.932114   9.680634   8.458849   7.262481   5.977853
    44  H    9.732674   9.584902   8.431394   7.186512   6.006573
                    6          7          8          9         10
     6  C    0.000000
     7  C    1.435044   0.000000
     8  C    2.513062   1.434278   0.000000
     9  C    3.774346   2.437546   1.414482   0.000000
    10  C    4.256481   2.822673   2.452632   1.385518   0.000000
    11  C    3.769816   2.480284   2.870339   2.433600   1.408388
    12  C    4.916976   3.778956   4.299594   3.751554   2.485091
    13  C    5.113135   4.278598   5.141276   4.876290   3.734927
    14  C    4.274299   3.814990   4.987168   5.125350   4.277900
    15  C    2.835028   2.496876   3.805181   4.248155   3.750459
    16  C    2.455555   1.436374   2.487923   2.812413   2.440437
    17  C    6.549133   6.292185   7.497266   7.579190   6.596512
    18  C    2.962742   2.524412   1.459894   2.500566   3.783076
    19  C    7.591273   7.486633   8.747247   8.897569   7.940271
    20  C    4.276460   3.768539   2.498985   2.992902   4.368342
    21  N    5.217400   4.959711   3.788693   4.335759   5.717753
    22  C    6.480787   6.152729   4.921790   5.231611   6.566801
    23  C    5.180236   5.286834   4.380888   5.233489   6.596951
    24  N    8.940171   8.721413   9.912173   9.918703   8.846350
    25  O    9.855449   9.750697  10.990062  11.065726  10.027958
    26  O    9.225279   8.816661   9.892296   9.724016   8.547011
    27  H    5.827282   6.186123   7.597922   8.158231   7.568108
    28  H    4.072194   4.912881   6.327779   7.249270   7.076333
    29  H    2.137295   3.441303   4.648837   5.865915   6.152977
    30  H    1.090215   2.186485   2.747935   4.147548   4.908165
    31  H    4.670265   3.430030   2.166921   1.092064   2.135175
    32  H    5.350293   3.916433   3.436530   2.150022   1.093838
    33  H    5.887743   4.651087   4.924350   4.092219   2.711740
    34  H    6.180782   5.367720   6.197072   5.831696   4.600387
    35  H    6.986116   6.509924   7.579798   7.456759   6.335723
    36  H    2.651216   2.748651   2.185857   3.436449   4.616563
    37  H    7.709297   7.804530   9.140259   9.441870   8.594050
    38  H    4.883456   4.114377   2.743922   2.724961   4.021504
    39  H    6.760198   6.209053   4.882866   4.896343   6.150570
    40  H    6.660363   6.468404   5.363917   5.787007   7.085620
    41  H    7.313023   7.029140   5.786601   6.078726   7.425352
    42  H    6.256446   6.378656   5.436515   6.199084   7.576115
    43  H    4.840942   5.188942   4.504856   5.541401   6.854437
    44  H    4.810613   4.946155   4.136238   5.043826   6.358400
                   11         12         13         14         15
    11  C    0.000000
    12  C    1.429414   0.000000
    13  C    2.442806   1.366866   0.000000
    14  C    2.869595   2.446330   1.436647   0.000000
    15  C    2.470777   2.822948   2.461862   1.439381   0.000000
    16  C    1.427882   2.462071   2.842310   2.499298   1.435858
    17  C    5.214872   4.327101   2.960293   2.510455   3.817828
    18  C    4.329975   5.759268   6.575174   6.309075   5.021070
    19  C    6.553141   5.670480   4.303841   3.787739   4.990109
    20  C    5.213715   6.619144   7.578692   7.463751   6.240239
    21  N    6.564984   7.976219   8.913636   8.731676   7.454086
    22  C    7.541817   8.911381   9.925146   9.842042   8.614321
    23  C    7.247277   8.675522   9.470792   9.094185   7.729000
    24  N    7.509168   6.440137   5.114911   4.927947   6.244860
    25  O    8.673784   7.644659   6.306708   6.007685   7.255966
    26  O    7.290567   6.072552   4.847765   5.013636   6.424914
    27  H    6.189228   5.875085   4.682057   3.440399   3.910309
    28  H    5.891933   6.159919   5.366738   3.931045   3.440642
    29  H    5.347260   6.165038   5.894923   4.654451   3.446845
    30  H    4.658010   5.896926   6.179562   5.363995   3.924893
    31  H    3.410372   4.617836   5.831550   6.183173   5.338885
    32  H    2.162141   2.713730   4.075825   4.909582   4.629241
    33  H    2.174593   1.093784   2.133410   3.436429   3.916699
    34  H    3.418918   2.116620   1.089499   2.193699   3.455903
    35  H    5.028361   3.909596   2.601367   2.727318   4.159030
    36  H    4.934990   6.340215   6.991385   6.518643   5.140253
    37  H    7.188010   6.455563   5.098912   4.331838   5.335306
    38  H    5.064642   6.397614   7.477902   7.553579   6.456980
    39  H    7.252101   8.557233   9.660671   9.731914   8.602644
    40  H    7.966155   9.328007  10.277308  10.119968   8.871622
    41  H    8.435693   9.808122  10.838581  10.757191   9.516145
    42  H    8.292523   9.718360  10.542915  10.183914   8.820644
    43  H    7.344436   8.764561   9.447860   8.940788   7.535887
    44  H    6.929853   8.337938   9.086961   8.678553   7.320423
                   16         17         18         19         20
    16  C    0.000000
    17  C    5.009426   0.000000
    18  C    3.833743   8.804199   0.000000
    19  C    6.267028   1.348407  10.010157   0.000000
    20  C    4.969214   9.970791   1.364464  11.208562   0.000000
    21  N    6.244560  11.231476   2.447667  12.441913   1.368715
    22  C    7.363511  12.339185   3.719473  13.570011   2.438059
    23  C    6.680874  11.544583   2.923757  12.682787   2.440270
    24  N    7.425526   2.429370  11.231538   1.452011  12.387523
    25  O    8.503617   3.500490  12.272528   2.272010  13.458133
    26  O    7.441995   2.739149  11.275167   2.316835  12.360755
    27  H    5.345876   2.699488   8.619029   2.671513   9.908099
    28  H    4.636922   4.637374   7.030875   5.026330   8.341604
    29  H    3.919562   6.333919   4.967059   7.068020   6.239869
    30  H    3.446680   7.615906   2.615139   8.625135   3.840110
    31  H    3.903438   8.609667   2.711953   9.938045   2.698023
    32  H    3.430805   7.030750   4.650220   8.377320   5.019799
    33  H    3.445410   4.968803   6.359041   6.272714   7.061280
    34  H    3.931565   2.632061   7.640588   3.879783   8.610345
    35  H    5.128353   1.091190   8.961253   2.047308  10.051277
    36  H    4.166150   8.950425   1.089994  10.082603   2.111898
    37  H    6.707286   2.194416  10.316815   1.087768  11.560817
    38  H    5.100554  10.045429   2.129812  11.325158   1.094776
    39  H    7.277737  12.219644   3.923369  13.488967   2.562506
    40  H    7.696936  12.580874   4.171392  13.777893   3.017690
    41  H    8.262869  13.263162   4.527952  14.493785   3.293951
    42  H    7.765834  12.633998   3.986893  13.769449   3.337490
    43  H    6.616847  11.335897   3.092221  12.420002   2.868694
    44  H    6.318319  11.098991   2.772683  12.220916   2.684390
                   21         22         23         24         25
    21  N    0.000000
    22  C    1.450200   0.000000
    23  C    1.446813   2.474048   0.000000
    24  N   13.656824  14.749848  13.970182   0.000000
    25  O   14.703534  15.817249  14.954013   1.226710   0.000000
    26  O   13.671203  14.711472  14.097982   1.225549   2.171594
    27  H   10.995911  12.200463  10.993610   4.082641   4.553201
    28  H    9.254625  10.496592   9.040054   6.472153   7.008148
    29  H    6.990077   8.244878   6.648272   8.509935   9.217519
    30  H    4.553588   5.832867   4.311280   9.992443  10.880201
    31  H    3.928737   4.638372   5.017003  10.918542  12.081183
    32  H    6.326835   7.025958   7.330465   9.140552  10.351114
    33  H    8.418908   9.248961   9.242028   6.844033   8.069186
    34  H    9.955010  10.935016  10.543456   4.419728   5.642591
    35  H   11.358123  12.410635  11.791205   2.532197   3.745585
    36  H    2.713140   4.102466   2.605938  11.372936  12.352838
    37  H   12.739347  13.902707  12.869626   2.109433   2.385971
    38  H    2.062651   2.559996   3.388360  12.426515  13.538646
    39  H    2.097014   1.100044   3.397386  14.600104  15.705619
    40  H    2.138756   1.108954   2.861440  14.980546  16.019950
    41  H    2.105725   1.102514   2.709424  15.680409  16.747158
    42  H    2.090053   2.567556   1.099792  15.058546  16.039840
    43  H    2.135436   3.022814   1.109171  13.747909  14.686842
    44  H    2.100667   3.354268   1.101782  13.509896  14.481587
                   26         27         28         29         30
    26  O    0.000000
    27  H    4.967582   0.000000
    28  H    7.233108   2.455695   0.000000
    29  H    9.067462   4.762272   2.470834   0.000000
    30  H   10.304489   6.729202   4.749565   2.440192   0.000000
    31  H   10.666155   9.248826   8.303799   6.798511   4.867822
    32  H    8.699208   8.308575   8.029786   7.228311   5.986809
    33  H    6.290694   6.805586   7.236552   7.238083   6.818765
    34  H    3.962140   4.889444   6.011092   6.829709   7.253906
    35  H    2.314150   3.783083   5.587471   7.062313   8.073298
    36  H   11.525773   8.448997   6.635692   4.392626   1.984618
    37  H    3.216960   2.170018   4.625683   6.884355   8.688194
    38  H   12.300911  10.245978   8.874830   6.930380   4.625318
    39  H   14.473744  12.317098  10.786773   8.660220   6.264094
    40  H   14.986069  12.322612  10.553322   8.281704   5.957625
    41  H   15.642708  13.089990  11.331914   9.028565   6.608683
    42  H   15.184092  12.054398  10.057382   7.640364   5.357840
    43  H   13.950779  10.588770   8.525082   6.083697   3.865856
    44  H   13.654063  10.527216   8.591964   6.246749   3.984594
                   31         32         33         34         35
    31  H    0.000000
    32  H    2.451451   0.000000
    33  H    4.768213   2.479824   0.000000
    34  H    6.730302   4.750507   2.431907   0.000000
    35  H    8.429704   6.608484   4.343201   1.911544   0.000000
    36  H    3.747043   5.556207   7.051346   8.075678   9.227777
    37  H   10.508976   9.126834   7.153994   4.822953   3.080098
    38  H    2.155377   4.485018   6.692792   8.454999  10.017010
    39  H    4.155217   6.462104   8.777285  10.622957  12.197138
    40  H    5.308700   7.594071   9.712848  11.292358  12.697993
    41  H    5.416022   7.843763  10.123285  11.848988  13.336654
    42  H    5.867501   8.248128  10.247365  11.611061  12.877151
    43  H    5.495037   7.678691   9.419027  10.532848  11.661330
    44  H    4.917822   7.126326   8.935386  10.155420  11.362180
                   36         37         38         39         40
    36  H    0.000000
    37  H   10.281707   0.000000
    38  H    3.083993  11.764243   0.000000
    39  H    4.554295  13.901070   2.202381   0.000000
    40  H    4.466026  14.066916   3.154100   1.784780   0.000000
    41  H    4.791448  14.817204   3.474941   1.782408   1.787595
    42  H    3.687819  13.946993   4.147501   3.590302   2.929284
    43  H    2.575739  12.535994   3.841438   3.974739   3.021751
    44  H    2.258230  12.396664   3.708219   4.134475   3.897227
                   41         42         43         44
    41  H    0.000000
    42  H    2.353126   0.000000
    43  H    3.419911   1.788701   0.000000
    44  H    3.529090   1.783243   1.787222   0.000000
 Stoichiometry    C22H18N2O2
 Framework group  C1[X(C22H18N2O2)]
 Deg. of freedom   126
 Full point group                 C1      NOp   1
 Largest Abelian subgroup         C1      NOp   1
 Largest concise Abelian subgroup C1      NOp   1
                         Standard orientation:                         
 ---------------------------------------------------------------------
 Center     Atomic      Atomic             Coordinates (Angstroms)
 Number     Number       Type             X           Y           Z
 ---------------------------------------------------------------------
      1          6           0        3.186529    0.523838    0.027045
      2          6           0        3.072340    1.932403    0.065572
      3          6           0        1.845028    2.567512    0.060567
      4          6           0        0.646930    1.822125    0.013312
      5          6           0       -0.635032    2.456289    0.020043
      6          6           0       -1.790342    1.726656   -0.028861
      7          6           0       -1.781695    0.293348   -0.098892
      8          6           0       -2.989228   -0.477834   -0.164426
      9          6           0       -2.867458   -1.886534   -0.203118
     10          6           0       -1.638227   -2.524829   -0.168042
     11          6           0       -0.437333   -1.790936   -0.115011
     12          6           0        0.843977   -2.424434   -0.102767
     13          6           0        2.003208   -1.701489   -0.059673
     14          6           0        1.991362   -0.265400   -0.021439
     15          6           0        0.712227    0.394544   -0.031784
     16          6           0       -0.505170   -0.365007   -0.083889
     17          6           0        4.496179   -0.108100    0.038012
     18          6           0       -4.300526    0.162648   -0.204065
     19          6           0        5.700123    0.498002    0.074862
     20          6           0       -5.468185   -0.448115    0.149918
     21          7           0       -6.734034    0.060314    0.038092
     22          6           0       -7.811491   -0.515310    0.819645
     23          6           0       -6.938417    1.389263   -0.496129
     24          7           0        6.918168   -0.292355    0.081096
     25          8           0        7.966578    0.343773    0.112615
     26          8           0        6.846035   -1.515511    0.055479
     27          1           0        3.978330    2.540458    0.102904
     28          1           0        1.792118    3.658870    0.094819
     29          1           0       -0.676120    3.547662    0.073481
     30          1           0       -2.743987    2.254217   -0.000398
     31          1           0       -3.769090   -2.494981   -0.300353
     32          1           0       -1.591443   -3.616956   -0.207426
     33          1           0        0.885147   -3.517115   -0.129538
     34          1           0        2.951737   -2.237452   -0.053129
     35          1           0        4.554204   -1.197495    0.014611
     36          1           0       -4.339547    1.201062   -0.533094
     37          1           0        5.916125    1.563767    0.101827
     38          1           0       -5.443816   -1.457234    0.573733
     39          1           0       -7.594477   -1.572200    1.034085
     40          1           0       -7.961841    0.003087    1.788376
     41          1           0       -8.760235   -0.468217    0.259999
     42          1           0       -8.007584    1.542376   -0.703451
     43          1           0       -6.604051    2.185653    0.199732
     44          1           0       -6.384103    1.510851   -1.440521
 ---------------------------------------------------------------------
 Rotational constants (GHZ):           0.6879019           0.0739567           0.0671651
 Leave Link  202 at Fri Aug 15 16:11:11 2025, MaxMem=  1342177280 cpu:               0.0 elap:               0.0
 (Enter /opt/bwhpc/common/chem/gaussian/g16.C.01/x86_64-Intel-avx2-source/g16/l301.exe)
 Standard basis: CC-pVDZ (5D, 7F)
 Ernie: Thresh=  0.10000D-02 Tol=  0.10000D-05 Strict=F.
 Ernie:  52 primitive shells out of 662 were deleted.
 There are   480 symmetry adapted cartesian basis functions of A   symmetry.
 There are   454 symmetry adapted basis functions of A   symmetry.
   454 basis functions,   984 primitive gaussians,   480 cartesian basis functions
    90 alpha electrons       90 beta electrons
       nuclear repulsion energy      2038.6634330680 Hartrees.
 IExCor= 3226 DFT=T Ex+Corr=BMK ExCW=0 ScaHFX=  0.420000
 ScaDFX=  1.000000  1.000000  1.000000  1.000000 ScalE2=  1.000000  1.000000
 IRadAn=      5 IRanWt=     -1 IRanGd=            0 ICorTp=0 IEmpDi=  4
 NAtoms=   44 NActive=   44 NUniq=   44 SFac= 1.00D+00 NAtFMM=   60 NAOKFM=F Big=F
 Integral buffers will be    131072 words long.
 Raffenetti 2 integral format.
 Two-electron integral symmetry is turned on.
 Leave Link  301 at Fri Aug 15 16:11:12 2025, MaxMem=  1342177280 cpu:               0.4 elap:               0.1
 (Enter /opt/bwhpc/common/chem/gaussian/g16.C.01/x86_64-Intel-avx2-source/g16/l302.exe)
 NPDir=0 NMtPBC=     1 NCelOv=     1 NCel=       1 NClECP=     1 NCelD=      1
         NCelK=      1 NCelE2=     1 NClLst=     1 CellRange=     0.0.
 One-electron integrals computed using PRISM.
 One-electron integral symmetry used in STVInt
 NBasis=   454 RedAO= T EigKep=  6.92D-05  NBF=   454
 NBsUse=   454 1.00D-06 EigRej= -1.00D+00 NBFU=   454
 Precomputing XC quadrature grid using
 IXCGrd= 4 IRadAn=           5 IRanWt=          -1 IRanGd=           0 AccXCQ= 0.00D+00.
 Generated NRdTot=       0 NPtTot=           0 NUsed=           0 NTot=          32
 NSgBfM=   460   460   460   460   460 MxSgAt=    44 MxSgA2=    44.
 Leave Link  302 at Fri Aug 15 16:11:12 2025, MaxMem=  1342177280 cpu:               5.9 elap:               0.8
 (Enter /opt/bwhpc/common/chem/gaussian/g16.C.01/x86_64-Intel-avx2-source/g16/l303.exe)
 DipDrv:  MaxL=1.
 Leave Link  303 at Fri Aug 15 16:11:12 2025, MaxMem=  1342177280 cpu:               0.6 elap:               0.1
 (Enter /opt/bwhpc/common/chem/gaussian/g16.C.01/x86_64-Intel-avx2-source/g16/l401.exe)
 ExpMin= 1.22D-01 ExpMax= 1.17D+04 ExpMxC= 4.01D+02 IAcc=3 IRadAn=         5 AccDes= 0.00D+00
 Harris functional with IExCor= 1009 and IRadAn=       5 diagonalized for initial guess.
 HarFok:  IExCor= 1009 AccDes= 0.00D+00 IRadAn=         5 IDoV= 1 UseB2=F ITyADJ=14
 ICtDFT=  3500011 ScaDFX=  1.000000  1.000000  1.000000  1.000000
 FoFCou: FMM=F IPFlag=           0 FMFlag=      100000 FMFlg1=           0
         NFxFlg=           0 DoJE=T BraDBF=F KetDBF=T FulRan=T
         wScrn=  0.000000 ICntrl=       500 IOpCl=  0 I1Cent=   200000004 NGrid=           0
         NMat0=    1 NMatS0=      1 NMatT0=    0 NMatD0=    1 NMtDS0=    0 NMtDT0=    0
 Petite list used in FoFCou.
 Harris En= -1108.09046985973    
 JPrj=0 DoOrth=F DoCkMO=F.
 Leave Link  401 at Fri Aug 15 16:11:17 2025, MaxMem=  1342177280 cpu:              35.2 elap:               4.4
 (Enter /opt/bwhpc/common/chem/gaussian/g16.C.01/x86_64-Intel-avx2-source/g16/l502.exe)
 Integral symmetry usage will be decided dynamically.
 Closed shell SCF:
 Using DIIS extrapolation, IDIIS=  1040.
 NGot=  1342177280 LenX=  1341706554 LenY=  1341475674
 Requested convergence on RMS density matrix=1.00D-08 within 128 cycles.
 Requested convergence on MAX density matrix=1.00D-06.
 Requested convergence on             energy=1.00D-06.
 No special actions if energy rises.
 Fock matrices will be formed incrementally for  20 cycles.
 Integral accuracy reduced to 1.0D-05 until final iterations.

 Cycle   1  Pass 0  IDiag  1:
 FoFJK:  IHMeth= 1 ICntrl=       0 DoSepK=F KAlg= 0 I1Cent=           0 FoldK=F
 IRaf= 700000000 NMat=       1 IRICut=       1 DoRegI=T DoRafI=F ISym2E= 0 IDoP0=0 IntGTp=1.
 FoFCou: FMM=F IPFlag=           0 FMFlag=      100000 FMFlg1=           0
         NFxFlg=           0 DoJE=F BraDBF=F KetDBF=F FulRan=T
         wScrn=  0.000000 ICntrl=         0 IOpCl=  0 I1Cent=           0 NGrid=           0
         NMat0=    1 NMatS0=      1 NMatT0=    0 NMatD0=    1 NMtDS0=    0 NMtDT0=    0
 Symmetry not used in FoFCou.
 E= -1107.87862595650    
 DIIS: error= 3.87D-02 at cycle   1 NSaved=   1.
 NSaved= 1 IEnMin= 1 EnMin= -1107.87862595650     IErMin= 1 ErrMin= 3.87D-02
 ErrMax= 3.87D-02  0.00D+00 EMaxC= 1.00D-01 BMatC= 4.94D-01 BMatP= 4.94D-01
 IDIUse=3 WtCom= 6.13D-01 WtEn= 3.87D-01
 Coeff-Com:  0.100D+01
 Coeff-En:   0.100D+01
 Coeff:      0.100D+01
 Gap=     0.137 Goal=   None    Shift=    0.000
 GapD=    0.137 DampG=1.000 DampE=0.500 DampFc=0.5000 IDamp=-1.
 Damping current iteration by 5.00D-01
 RMSDP=5.02D-03 MaxDP=1.96D-01              OVMax= 2.74D-01

 Cycle   2  Pass 0  IDiag  1:
 RMSU=  2.26D-03    CP:  9.38D-01
 E= -1108.10689104909     Delta-E=       -0.228265092583 Rises=F Damp=T
 DIIS: error= 9.90D-03 at cycle   2 NSaved=   2.
 NSaved= 2 IEnMin= 2 EnMin= -1108.10689104909     IErMin= 2 ErrMin= 9.90D-03
 ErrMax= 9.90D-03  0.00D+00 EMaxC= 1.00D-01 BMatC= 3.94D-02 BMatP= 4.94D-01
 IDIUse=3 WtCom= 9.01D-01 WtEn= 9.90D-02
 Coeff-Com:  0.716D-01 0.928D+00
 Coeff-En:   0.520D-01 0.948D+00
 Coeff:      0.697D-01 0.930D+00
 Gap=     0.176 Goal=   None    Shift=    0.000
 RMSDP=1.60D-03 MaxDP=6.77D-02 DE=-2.28D-01 OVMax= 2.25D-01

 Cycle   3  Pass 0  IDiag  1:
 RMSU=  1.15D-03    CP:  8.96D-01  1.37D+00
 E= -1108.35948242667     Delta-E=       -0.252591377579 Rises=F Damp=F
 DIIS: error= 1.38D-02 at cycle   3 NSaved=   3.
 NSaved= 3 IEnMin= 3 EnMin= -1108.35948242667     IErMin= 2 ErrMin= 9.90D-03
 ErrMax= 1.38D-02  0.00D+00 EMaxC= 1.00D-01 BMatC= 3.16D-02 BMatP= 3.94D-02
 IDIUse=3 WtCom= 8.62D-01 WtEn= 1.38D-01
 Coeff-Com: -0.288D-01 0.475D+00 0.554D+00
 Coeff-En:   0.000D+00 0.000D+00 0.100D+01
 Coeff:     -0.248D-01 0.409D+00 0.615D+00
 Gap=     0.133 Goal=   None    Shift=    0.000
 RMSDP=5.12D-04 MaxDP=3.77D-02 DE=-2.53D-01 OVMax= 5.56D-02

 Cycle   4  Pass 0  IDiag  1:
 RMSU=  3.24D-04    CP:  9.05D-01  1.35D+00  6.85D-01
 E= -1108.38328218996     Delta-E=       -0.023799763294 Rises=F Damp=F
 DIIS: error= 4.58D-03 at cycle   4 NSaved=   4.
 NSaved= 4 IEnMin= 4 EnMin= -1108.38328218996     IErMin= 4 ErrMin= 4.58D-03
 ErrMax= 4.58D-03  0.00D+00 EMaxC= 1.00D-01 BMatC= 4.94D-03 BMatP= 3.16D-02
 IDIUse=3 WtCom= 9.54D-01 WtEn= 4.58D-02
 Coeff-Com: -0.261D-02 0.662D-01 0.299D+00 0.637D+00
 Coeff-En:   0.000D+00 0.000D+00 0.114D+00 0.886D+00
 Coeff:     -0.249D-02 0.632D-01 0.291D+00 0.649D+00
 Gap=     0.132 Goal=   None    Shift=    0.000
 RMSDP=1.88D-04 MaxDP=1.24D-02 DE=-2.38D-02 OVMax= 2.04D-02

 Cycle   5  Pass 0  IDiag  1:
 RMSU=  1.17D-04    CP:  9.04D-01  1.33D+00  7.76D-01  7.06D-01
 E= -1108.38716456532     Delta-E=       -0.003882375357 Rises=F Damp=F
 DIIS: error= 1.57D-03 at cycle   5 NSaved=   5.
 NSaved= 5 IEnMin= 5 EnMin= -1108.38716456532     IErMin= 5 ErrMin= 1.57D-03
 ErrMax= 1.57D-03  0.00D+00 EMaxC= 1.00D-01 BMatC= 5.92D-04 BMatP= 4.94D-03
 IDIUse=3 WtCom= 9.84D-01 WtEn= 1.57D-02
 Coeff-Com:  0.164D-02-0.154D-02 0.128D+00 0.390D+00 0.482D+00
 Coeff-En:   0.000D+00 0.000D+00 0.000D+00 0.151D-01 0.985D+00
 Coeff:      0.162D-02-0.151D-02 0.126D+00 0.384D+00 0.490D+00
 Gap=     0.132 Goal=   None    Shift=    0.000
 RMSDP=6.59D-05 MaxDP=5.75D-03 DE=-3.88D-03 OVMax= 1.07D-02

 Cycle   6  Pass 0  IDiag  1:
 RMSU=  5.22D-05    CP:  9.04D-01  1.34D+00  7.71D-01  7.72D-01  7.21D-01
 E= -1108.38764984535     Delta-E=       -0.000485280033 Rises=F Damp=F
 DIIS: error= 6.56D-04 at cycle   6 NSaved=   6.
 NSaved= 6 IEnMin= 6 EnMin= -1108.38764984535     IErMin= 6 ErrMin= 6.56D-04
 ErrMax= 6.56D-04  0.00D+00 EMaxC= 1.00D-01 BMatC= 8.21D-05 BMatP= 5.92D-04
 IDIUse=3 WtCom= 9.93D-01 WtEn= 6.56D-03
 Coeff-Com:  0.147D-02-0.788D-02 0.408D-01 0.149D+00 0.307D+00 0.511D+00
 Coeff-En:   0.000D+00 0.000D+00 0.000D+00 0.000D+00 0.739D-01 0.926D+00
 Coeff:      0.146D-02-0.783D-02 0.405D-01 0.148D+00 0.305D+00 0.513D+00
 Gap=     0.133 Goal=   None    Shift=    0.000
 RMSDP=2.18D-05 MaxDP=2.56D-03 DE=-4.85D-04 OVMax= 4.19D-03

 Cycle   7  Pass 0  IDiag  1:
 RMSU=  1.74D-05    CP:  9.04D-01  1.34D+00  7.73D-01  7.73D-01  7.83D-01
                    CP:  7.95D-01
 E= -1108.38771905513     Delta-E=       -0.000069209783 Rises=F Damp=F
 DIIS: error= 1.41D-04 at cycle   7 NSaved=   7.
 NSaved= 7 IEnMin= 7 EnMin= -1108.38771905513     IErMin= 7 ErrMin= 1.41D-04
 ErrMax= 1.41D-04  0.00D+00 EMaxC= 1.00D-01 BMatC= 6.73D-06 BMatP= 8.21D-05
 IDIUse=3 WtCom= 9.99D-01 WtEn= 1.41D-03
 Coeff-Com:  0.789D-03-0.475D-02 0.117D-02 0.166D-01 0.885D-01 0.267D+00
 Coeff-Com:  0.630D+00
 Coeff-En:   0.000D+00 0.000D+00 0.000D+00 0.000D+00 0.000D+00 0.000D+00
 Coeff-En:   0.100D+01
 Coeff:      0.788D-03-0.474D-02 0.116D-02 0.166D-01 0.884D-01 0.267D+00
 Coeff:      0.631D+00
 Gap=     0.133 Goal=   None    Shift=    0.000
 RMSDP=1.01D-05 MaxDP=4.65D-04 DE=-6.92D-05 OVMax= 1.68D-03

 Cycle   8  Pass 0  IDiag  1:
 RMSU=  8.51D-06    CP:  9.04D-01  1.34D+00  7.76D-01  7.72D-01  8.07D-01
                    CP:  8.35D-01  9.09D-01
 E= -1108.38772642473     Delta-E=       -0.000007369596 Rises=F Damp=F
 DIIS: error= 4.46D-05 at cycle   8 NSaved=   8.
 NSaved= 8 IEnMin= 8 EnMin= -1108.38772642473     IErMin= 8 ErrMin= 4.46D-05
 ErrMax= 4.46D-05  0.00D+00 EMaxC= 1.00D-01 BMatC= 1.36D-06 BMatP= 6.73D-06
 IDIUse=1 WtCom= 1.00D+00 WtEn= 0.00D+00
 Coeff-Com:  0.304D-03-0.178D-02-0.593D-02-0.141D-01 0.347D-02 0.737D-01
 Coeff-Com:  0.361D+00 0.583D+00
 Coeff:      0.304D-03-0.178D-02-0.593D-02-0.141D-01 0.347D-02 0.737D-01
 Coeff:      0.361D+00 0.583D+00
 Gap=     0.133 Goal=   None    Shift=    0.000
 RMSDP=4.58D-06 MaxDP=1.68D-04 DE=-7.37D-06 OVMax= 6.29D-04

 Initial convergence to 1.0D-05 achieved.  Increase integral accuracy.
 Cycle   9  Pass 1  IDiag  1:
 E= -1108.38757937784     Delta-E=        0.000147046883 Rises=F Damp=F
 DIIS: error= 2.33D-04 at cycle   1 NSaved=   1.
 NSaved= 1 IEnMin= 1 EnMin= -1108.38757937784     IErMin= 1 ErrMin= 2.33D-04
 ErrMax= 2.33D-04  0.00D+00 EMaxC= 1.00D-01 BMatC= 1.53D-05 BMatP= 1.53D-05
 IDIUse=3 WtCom= 9.98D-01 WtEn= 2.33D-03
 Coeff-Com:  0.100D+01
 Coeff-En:   0.100D+01
 Coeff:      0.100D+01
 Gap=     0.133 Goal=   None    Shift=    0.000
 RMSDP=4.58D-06 MaxDP=1.68D-04 DE= 1.47D-04 OVMax= 5.92D-04

 Cycle  10  Pass 1  IDiag  1:
 RMSU=  3.60D-04    CP:  1.00D+00
 E= -1108.38759133522     Delta-E=       -0.000011957379 Rises=F Damp=F
 DIIS: error= 2.45D-05 at cycle   2 NSaved=   2.
 NSaved= 2 IEnMin= 2 EnMin= -1108.38759133522     IErMin= 2 ErrMin= 2.45D-05
 ErrMax= 2.45D-05  0.00D+00 EMaxC= 1.00D-01 BMatC= 5.37D-07 BMatP= 1.53D-05
 IDIUse=1 WtCom= 1.00D+00 WtEn= 0.00D+00
 Coeff-Com:  0.358D-01 0.964D+00
 Coeff:      0.358D-01 0.964D+00
 Gap=     0.133 Goal=   None    Shift=    0.000
 RMSDP=8.16D-06 MaxDP=2.40D-04 DE=-1.20D-05 OVMax= 6.05D-04

 Cycle  11  Pass 1  IDiag  1:
 RMSU=  5.17D-06    CP:  1.00D+00  1.02D+00
 E= -1108.38759001145     Delta-E=        0.000001323777 Rises=F Damp=F
 DIIS: error= 5.49D-05 at cycle   3 NSaved=   3.
 NSaved= 3 IEnMin= 2 EnMin= -1108.38759133522     IErMin= 2 ErrMin= 2.45D-05
 ErrMax= 5.49D-05  0.00D+00 EMaxC= 1.00D-01 BMatC= 1.81D-06 BMatP= 5.37D-07
 IDIUse=1 WtCom= 1.00D+00 WtEn= 0.00D+00
 Coeff-Com: -0.107D-01 0.655D+00 0.356D+00
 Coeff:     -0.107D-01 0.655D+00 0.356D+00
 Gap=     0.133 Goal=   None    Shift=    0.000
 RMSDP=3.20D-06 MaxDP=1.46D-04 DE= 1.32D-06 OVMax= 4.46D-04

 Cycle  12  Pass 1  IDiag  1:
 RMSU=  1.29D-06    CP:  1.00D+00  1.02D+00  4.39D-01
 E= -1108.38759194336     Delta-E=       -0.000001931910 Rises=F Damp=F
 DIIS: error= 6.47D-06 at cycle   4 NSaved=   4.
 NSaved= 4 IEnMin= 4 EnMin= -1108.38759194336     IErMin= 4 ErrMin= 6.47D-06
 ErrMax= 6.47D-06  0.00D+00 EMaxC= 1.00D-01 BMatC= 1.13D-08 BMatP= 5.37D-07
 IDIUse=1 WtCom= 1.00D+00 WtEn= 0.00D+00
 Coeff-Com: -0.622D-02 0.333D+00 0.187D+00 0.487D+00
 Coeff:     -0.622D-02 0.333D+00 0.187D+00 0.487D+00
 Gap=     0.133 Goal=   None    Shift=    0.000
 RMSDP=3.26D-07 MaxDP=3.05D-05 DE=-1.93D-06 OVMax= 5.09D-05

 Cycle  13  Pass 1  IDiag  1:
 RMSU=  3.23D-07    CP:  1.00D+00  1.02D+00  4.40D-01  1.00D+00
 E= -1108.38759195242     Delta-E=       -0.000000009059 Rises=F Damp=F
 DIIS: error= 3.43D-06 at cycle   5 NSaved=   5.
 NSaved= 5 IEnMin= 5 EnMin= -1108.38759195242     IErMin= 5 ErrMin= 3.43D-06
 ErrMax= 3.43D-06  0.00D+00 EMaxC= 1.00D-01 BMatC= 2.25D-09 BMatP= 1.13D-08
 IDIUse=1 WtCom= 1.00D+00 WtEn= 0.00D+00
 Coeff-Com: -0.717D-03 0.147D-01 0.995D-02 0.290D+00 0.686D+00
 Coeff:     -0.717D-03 0.147D-01 0.995D-02 0.290D+00 0.686D+00
 Gap=     0.133 Goal=   None    Shift=    0.000
 RMSDP=1.71D-07 MaxDP=1.17D-05 DE=-9.06D-09 OVMax= 2.38D-05

 Cycle  14  Pass 1  IDiag  1:
 RMSU=  1.35D-07    CP:  1.00D+00  1.02D+00  4.49D-01  1.07D+00  8.95D-01
 E= -1108.38759195462     Delta-E=       -0.000000002208 Rises=F Damp=F
 DIIS: error= 1.12D-06 at cycle   6 NSaved=   6.
 NSaved= 6 IEnMin= 6 EnMin= -1108.38759195462     IErMin= 6 ErrMin= 1.12D-06
 ErrMax= 1.12D-06  0.00D+00 EMaxC= 1.00D-01 BMatC= 5.17D-10 BMatP= 2.25D-09
 IDIUse=1 WtCom= 1.00D+00 WtEn= 0.00D+00
 Coeff-Com:  0.752D-03-0.540D-01-0.296D-01 0.783D-01 0.413D+00 0.591D+00
 Coeff:      0.752D-03-0.540D-01-0.296D-01 0.783D-01 0.413D+00 0.591D+00
 Gap=     0.133 Goal=   None    Shift=    0.000
 RMSDP=8.47D-08 MaxDP=3.53D-06 DE=-2.21D-09 OVMax= 1.77D-05

 Cycle  15  Pass 1  IDiag  1:
 RMSU=  7.01D-08    CP:  1.00D+00  1.02D+00  4.49D-01  1.10D+00  9.66D-01
                    CP:  9.70D-01
 E= -1108.38759195521     Delta-E=       -0.000000000583 Rises=F Damp=F
 DIIS: error= 2.11D-07 at cycle   7 NSaved=   7.
 NSaved= 7 IEnMin= 7 EnMin= -1108.38759195521     IErMin= 7 ErrMin= 2.11D-07
 ErrMax= 2.11D-07  0.00D+00 EMaxC= 1.00D-01 BMatC= 3.66D-11 BMatP= 5.17D-10
 IDIUse=1 WtCom= 1.00D+00 WtEn= 0.00D+00
 Coeff-Com:  0.429D-03-0.263D-01-0.146D-01-0.241D-02 0.100D+00 0.254D+00
 Coeff-Com:  0.689D+00
 Coeff:      0.429D-03-0.263D-01-0.146D-01-0.241D-02 0.100D+00 0.254D+00
 Coeff:      0.689D+00
 Gap=     0.133 Goal=   None    Shift=    0.000
 RMSDP=2.82D-08 MaxDP=1.04D-06 DE=-5.83D-10 OVMax= 3.93D-06

 Cycle  16  Pass 1  IDiag  1:
 RMSU=  1.99D-08    CP:  1.00D+00  1.02D+00  4.50D-01  1.10D+00  9.91D-01
                    CP:  1.09D+00  1.01D+00
 E= -1108.38759195528     Delta-E=       -0.000000000070 Rises=F Damp=F
 DIIS: error= 1.45D-07 at cycle   8 NSaved=   8.
 NSaved= 8 IEnMin= 8 EnMin= -1108.38759195528     IErMin= 8 ErrMin= 1.45D-07
 ErrMax= 1.45D-07  0.00D+00 EMaxC= 1.00D-01 BMatC= 9.66D-12 BMatP= 3.66D-11
 IDIUse=1 WtCom= 1.00D+00 WtEn= 0.00D+00
 Coeff-Com:  0.615D-04-0.222D-02-0.137D-02-0.177D-01-0.306D-01 0.165D-01
 Coeff-Com:  0.375D+00 0.661D+00
 Coeff:      0.615D-04-0.222D-02-0.137D-02-0.177D-01-0.306D-01 0.165D-01
 Coeff:      0.375D+00 0.661D+00
 Gap=     0.133 Goal=   None    Shift=    0.000
 RMSDP=1.34D-08 MaxDP=4.53D-07 DE=-6.96D-11 OVMax= 3.42D-06

 Cycle  17  Pass 1  IDiag  1:
 RMSU=  8.36D-09    CP:  1.00D+00  1.02D+00  4.50D-01  1.11D+00  9.94D-01
                    CP:  1.12D+00  1.14D+00  8.73D-01
 E= -1108.38759195519     Delta-E=        0.000000000089 Rises=F Damp=F
 DIIS: error= 3.43D-08 at cycle   9 NSaved=   9.
 NSaved= 9 IEnMin= 8 EnMin= -1108.38759195528     IErMin= 9 ErrMin= 3.43D-08
 ErrMax= 3.43D-08  0.00D+00 EMaxC= 1.00D-01 BMatC= 9.47D-13 BMatP= 9.66D-12
 IDIUse=1 WtCom= 1.00D+00 WtEn= 0.00D+00
 Coeff-Com: -0.415D-04 0.311D-02 0.172D-02-0.634D-02-0.259D-01-0.312D-01
 Coeff-Com:  0.207D-01 0.268D+00 0.770D+00
 Coeff:     -0.415D-04 0.311D-02 0.172D-02-0.634D-02-0.259D-01-0.312D-01
 Coeff:      0.207D-01 0.268D+00 0.770D+00
 Gap=     0.133 Goal=   None    Shift=    0.000
 RMSDP=4.90D-09 MaxDP=1.95D-07 DE= 8.91D-11 OVMax= 8.41D-07

 SCF Done:  E(RBMK) =  -1108.38759196     A.U. after   17 cycles
            NFock= 17  Conv=0.49D-08     -V/T= 2.0065
 KE= 1.101260385793D+03 PE=-6.653770990551D+03 EE= 2.405459579735D+03
 Leave Link  502 at Fri Aug 15 16:15:01 2025, MaxMem=  1342177280 cpu:            1790.4 elap:             224.5
 (Enter /opt/bwhpc/common/chem/gaussian/g16.C.01/x86_64-Intel-avx2-source/g16/l801.exe)
 DoSCS=F DFT=T ScalE2(SS,OS)=  1.000000  1.000000
 Range of M.O.s used for correlation:     1   454
 NBasis=   454 NAE=    90 NBE=    90 NFC=     0 NFV=     0
 NROrb=    454 NOA=    90 NOB=    90 NVA=   364 NVB=   364

 **** Warning!!: The largest alpha MO coefficient is  0.22882061D+02

 Leave Link  801 at Fri Aug 15 16:15:01 2025, MaxMem=  1342177280 cpu:               0.2 elap:               0.0
 (Enter /opt/bwhpc/common/chem/gaussian/g16.C.01/x86_64-Intel-avx2-source/g16/l1002.exe)
 Minotr:  Closed shell wavefunction.
          Direct CPHF calculation.
          Differentiating once with respect to electric field.
                with respect to dipole field.
          Electric field/nuclear overlap derivatives assumed to be zero.
          Requested convergence is 1.0D-08 RMS, and 1.0D-07 maximum.
          Secondary convergence is 1.0D-12 RMS, and 1.0D-12 maximum.
          NewPWx=F KeepS1=T KeepF1=T KeepIn=T MapXYZ=F SortEE=F KeepMc=T.
        13435 words used for storage of precomputed grid.
 Two-electron integral symmetry used by symmetrizing perturbed Fock matrices.
          MDV=    1342177280 using IRadAn=       1.
          Solving linear equations simultaneously, MaxMat=     384.
          There are     3 degrees of freedom in the 1st order CPHF.  IDoFFX=0 NUNeed=     3.
      3 vectors produced by pass  0 Test12= 1.09D-12 3.33D-08 XBig12= 1.08D+03 2.65D+01.
 AX will form     3 AO Fock derivatives at one time.
 FoFJK:  IHMeth= 1 ICntrl=       0 DoSepK=F KAlg= 0 I1Cent=           0 FoldK=F
 IRaf= 670000000 NMat=       3 IRICut=       1 DoRegI=T DoRafI=F ISym2E=-1 IDoP0=0 IntGTp=1.
 FoFCou: FMM=F IPFlag=           0 FMFlag=      100000 FMFlg1=           0
         NFxFlg=           0 DoJE=F BraDBF=F KetDBF=F FulRan=T
         wScrn=  0.000000 ICntrl=         0 IOpCl=  0 I1Cent=           0 NGrid=           0
         NMat0=    3 NMatS0=      3 NMatT0=    0 NMatD0=    3 NMtDS0=    0 NMtDT0=    0
 Petite list used in FoFCou.
      3 vectors produced by pass  1 Test12= 1.09D-12 3.33D-08 XBig12= 2.11D+02 4.31D+00.
      3 vectors produced by pass  2 Test12= 1.09D-12 3.33D-08 XBig12= 5.40D+01 1.87D+00.
      3 vectors produced by pass  3 Test12= 1.09D-12 3.33D-08 XBig12= 3.08D+01 1.39D+00.
      3 vectors produced by pass  4 Test12= 1.09D-12 3.33D-08 XBig12= 5.04D+00 5.68D-01.
      3 vectors produced by pass  5 Test12= 1.09D-12 3.33D-08 XBig12= 1.50D+00 2.57D-01.
      3 vectors produced by pass  6 Test12= 1.09D-12 3.33D-08 XBig12= 3.81D-01 1.47D-01.
      3 vectors produced by pass  7 Test12= 1.09D-12 3.33D-08 XBig12= 1.27D-01 8.76D-02.
      3 vectors produced by pass  8 Test12= 1.09D-12 3.33D-08 XBig12= 1.53D-02 2.44D-02.
      3 vectors produced by pass  9 Test12= 1.09D-12 3.33D-08 XBig12= 3.56D-03 1.07D-02.
      3 vectors produced by pass 10 Test12= 1.09D-12 3.33D-08 XBig12= 6.99D-04 5.24D-03.
      3 vectors produced by pass 11 Test12= 1.09D-12 3.33D-08 XBig12= 1.58D-04 2.27D-03.
      3 vectors produced by pass 12 Test12= 1.09D-12 3.33D-08 XBig12= 3.54D-05 1.39D-03.
      3 vectors produced by pass 13 Test12= 1.09D-12 3.33D-08 XBig12= 9.04D-06 7.83D-04.
      3 vectors produced by pass 14 Test12= 1.09D-12 3.33D-08 XBig12= 1.44D-06 3.08D-04.
      3 vectors produced by pass 15 Test12= 1.09D-12 3.33D-08 XBig12= 1.94D-07 9.01D-05.
      3 vectors produced by pass 16 Test12= 1.09D-12 3.33D-08 XBig12= 3.60D-08 2.84D-05.
      3 vectors produced by pass 17 Test12= 1.09D-12 3.33D-08 XBig12= 5.69D-09 1.03D-05.
      3 vectors produced by pass 18 Test12= 1.09D-12 3.33D-08 XBig12= 7.20D-10 3.63D-06.
      3 vectors produced by pass 19 Test12= 1.09D-12 3.33D-08 XBig12= 1.15D-10 1.09D-06.
      3 vectors produced by pass 20 Test12= 1.09D-12 3.33D-08 XBig12= 2.07D-11 6.03D-07.
      2 vectors produced by pass 21 Test12= 1.09D-12 3.33D-08 XBig12= 1.74D-12 1.77D-07.
      1 vectors produced by pass 22 Test12= 1.09D-12 3.33D-08 XBig12= 8.52D-14 4.57D-08.
 InvSVY:  IOpt=1 It=  1 EMax= 1.42D-14
 Solved reduced A of dimension    66 with     3 vectors.
 FullF1:  Do perturbations      1 to       3.
 SCF Polarizability for W=    0.000000:
                1             2             3 
      1  0.703274D+03
      2  0.269134D+02  0.281775D+03
      3 -0.195232D+01  0.125659D+01  0.101482D+03
 Isotropic polarizability for W=    0.000000      362.18 Bohr**3.
 SCF Static Hyperpolarizability:
 K=  1 block:
                1 
      1  0.191384D+05
 K=  2 block:
                1             2 
      1 -0.139018D+04
      2 -0.283697D+02  0.131683D+03
 K=  3 block:
                1             2             3 
      1  0.113502D+03
      2  0.184340D+02  0.278041D+02
      3 -0.159344D+03  0.332538D+02  0.342323D+02
 End of Minotr F.D. properties file   721 does not exist.
 End of Minotr F.D. properties file   722 does not exist.
 End of Minotr F.D. properties file   788 does not exist.
 Leave Link 1002 at Fri Aug 15 16:20:15 2025, MaxMem=  1342177280 cpu:            2497.9 elap:             313.4
 (Enter /opt/bwhpc/common/chem/gaussian/g16.C.01/x86_64-Intel-avx2-source/g16/l601.exe)
 Copying SCF densities to generalized density rwf, IOpCl= 0 IROHF=0.

 **********************************************************************

            Population analysis using the SCF Density.

 **********************************************************************

 Orbital symmetries:
       Occupied  (A) (A) (A) (A) (A) (A) (A) (A) (A) (A) (A) (A)
                 (A) (A) (A) (A) (A) (A) (A) (A) (A) (A) (A) (A)
                 (A) (A) (A) (A) (A) (A) (A) (A) (A) (A) (A) (A)
                 (A) (A) (A) (A) (A) (A) (A) (A) (A) (A) (A) (A)
                 (A) (A) (A) (A) (A) (A) (A) (A) (A) (A) (A) (A)
                 (A) (A) (A) (A) (A) (A) (A) (A) (A) (A) (A) (A)
                 (A) (A) (A) (A) (A) (A) (A) (A) (A) (A) (A) (A)
                 (A) (A) (A) (A) (A) (A)
       Virtual   (A) (A) (A) (A) (A) (A) (A) (A) (A) (A) (A) (A)
                 (A) (A) (A) (A) (A) (A) (A) (A) (A) (A) (A) (A)
                 (A) (A) (A) (A) (A) (A) (A) (A) (A) (A) (A) (A)
                 (A) (A) (A) (A) (A) (A) (A) (A) (A) (A) (A) (A)
                 (A) (A) (A) (A) (A) (A) (A) (A) (A) (A) (A) (A)
                 (A) (A) (A) (A) (A) (A) (A) (A) (A) (A) (A) (A)
                 (A) (A) (A) (A) (A) (A) (A) (A) (A) (A) (A) (A)
                 (A) (A) (A) (A) (A) (A) (A) (A) (A) (A) (A) (A)
                 (A) (A) (A) (A) (A) (A) (A) (A) (A) (A) (A) (A)
                 (A) (A) (A) (A) (A) (A) (A) (A) (A) (A) (A) (A)
                 (A) (A) (A) (A) (A) (A) (A) (A) (A) (A) (A) (A)
                 (A) (A) (A) (A) (A) (A) (A) (A) (A) (A) (A) (A)
                 (A) (A) (A) (A) (A) (A) (A) (A) (A) (A) (A) (A)
                 (A) (A) (A) (A) (A) (A) (A) (A) (A) (A) (A) (A)
                 (A) (A) (A) (A) (A) (A) (A) (A) (A) (A) (A) (A)
                 (A) (A) (A) (A) (A) (A) (A) (A) (A) (A) (A) (A)
                 (A) (A) (A) (A) (A) (A) (A) (A) (A) (A) (A) (A)
                 (A) (A) (A) (A) (A) (A) (A) (A) (A) (A) (A) (A)
                 (A) (A) (A) (A) (A) (A) (A) (A) (A) (A) (A) (A)
                 (A) (A) (A) (A) (A) (A) (A) (A) (A) (A) (A) (A)
                 (A) (A) (A) (A) (A) (A) (A) (A) (A) (A) (A) (A)
                 (A) (A) (A) (A) (A) (A) (A) (A) (A) (A) (A) (A)
                 (A) (A) (A) (A) (A) (A) (A) (A) (A) (A) (A) (A)
                 (A) (A) (A) (A) (A) (A) (A) (A) (A) (A) (A) (A)
                 (A) (A) (A) (A) (A) (A) (A) (A) (A) (A) (A) (A)
                 (A) (A) (A) (A) (A) (A) (A) (A) (A) (A) (A) (A)
                 (A) (A) (A) (A) (A) (A) (A) (A) (A) (A) (A) (A)
                 (A) (A) (A) (A) (A) (A) (A) (A) (A) (A) (A) (A)
                 (A) (A) (A) (A) (A) (A) (A) (A) (A) (A) (A) (A)
                 (A) (A) (A) (A) (A) (A) (A) (A) (A) (A) (A) (A)
                 (A) (A) (A) (A)
 The electronic state is 1-A.
 Alpha  occ. eigenvalues --  -19.55178 -19.55064 -14.90048 -14.71112 -10.53562
 Alpha  occ. eigenvalues --  -10.53166 -10.52863 -10.52743 -10.51691 -10.50933
 Alpha  occ. eigenvalues --  -10.50697 -10.50622 -10.50376 -10.50159 -10.49866
 Alpha  occ. eigenvalues --  -10.49797 -10.49743 -10.49457 -10.49407 -10.49332
 Alpha  occ. eigenvalues --  -10.49269 -10.49260 -10.49167 -10.48964 -10.48775
 Alpha  occ. eigenvalues --  -10.47691  -1.30226  -1.11942  -1.04925  -0.97614
 Alpha  occ. eigenvalues --   -0.94021  -0.91430  -0.90637  -0.87927  -0.85732
 Alpha  occ. eigenvalues --   -0.83660  -0.82124  -0.80916  -0.80344  -0.79520
 Alpha  occ. eigenvalues --   -0.75425  -0.73362  -0.69810  -0.68648  -0.68367
 Alpha  occ. eigenvalues --   -0.66588  -0.63312  -0.62915  -0.59943  -0.59082
 Alpha  occ. eigenvalues --   -0.58333  -0.57526  -0.57518  -0.56751  -0.55833
 Alpha  occ. eigenvalues --   -0.55324  -0.53721  -0.53416  -0.52821  -0.51360
 Alpha  occ. eigenvalues --   -0.49943  -0.49113  -0.48312  -0.47168  -0.47099
 Alpha  occ. eigenvalues --   -0.46375  -0.45912  -0.45671  -0.44783  -0.44688
 Alpha  occ. eigenvalues --   -0.44256  -0.43898  -0.42892  -0.42365  -0.41955
 Alpha  occ. eigenvalues --   -0.39811  -0.39536  -0.38306  -0.37252  -0.35980
 Alpha  occ. eigenvalues --   -0.35770  -0.33969  -0.33525  -0.33218  -0.32401
 Alpha  occ. eigenvalues --   -0.30986  -0.29615  -0.27057  -0.25302  -0.20726
 Alpha virt. eigenvalues --   -0.07415  -0.03034  -0.01364   0.00948   0.02443
 Alpha virt. eigenvalues --    0.05835   0.06519   0.08856   0.10022   0.11024
 Alpha virt. eigenvalues --    0.11451   0.11816   0.12916   0.13565   0.13813
 Alpha virt. eigenvalues --    0.14229   0.14499   0.15639   0.15856   0.16900
 Alpha virt. eigenvalues --    0.17244   0.17867   0.18135   0.18800   0.19723
 Alpha virt. eigenvalues --    0.20277   0.22625   0.23016   0.24562   0.24978
 Alpha virt. eigenvalues --    0.26173   0.26360   0.27679   0.27926   0.28669
 Alpha virt. eigenvalues --    0.29394   0.29929   0.31020   0.32871   0.33501
 Alpha virt. eigenvalues --    0.33927   0.34293   0.34866   0.36246   0.36959
 Alpha virt. eigenvalues --    0.38395   0.38654   0.42476   0.42900   0.43467
 Alpha virt. eigenvalues --    0.44910   0.45967   0.46530   0.46989   0.47286
 Alpha virt. eigenvalues --    0.47872   0.48889   0.49049   0.50041   0.50353
 Alpha virt. eigenvalues --    0.50828   0.51207   0.51463   0.51568   0.51903
 Alpha virt. eigenvalues --    0.52232   0.53045   0.53598   0.54095   0.54380
 Alpha virt. eigenvalues --    0.55020   0.55523   0.55800   0.56193   0.56748
 Alpha virt. eigenvalues --    0.56969   0.57322   0.57801   0.58216   0.58382
 Alpha virt. eigenvalues --    0.58912   0.59131   0.59704   0.60335   0.60391
 Alpha virt. eigenvalues --    0.61619   0.62162   0.62943   0.63301   0.63999
 Alpha virt. eigenvalues --    0.65036   0.65832   0.66511   0.66724   0.67173
 Alpha virt. eigenvalues --    0.68378   0.68623   0.69060   0.69800   0.70181
 Alpha virt. eigenvalues --    0.71200   0.71967   0.72219   0.72808   0.73106
 Alpha virt. eigenvalues --    0.73648   0.74599   0.75012   0.75159   0.75726
 Alpha virt. eigenvalues --    0.76382   0.77362   0.77551   0.78085   0.78619
 Alpha virt. eigenvalues --    0.79790   0.80783   0.80983   0.82947   0.83697
 Alpha virt. eigenvalues --    0.84005   0.86527   0.87008   0.88742   0.89065
 Alpha virt. eigenvalues --    0.90474   0.90785   0.91031   0.91752   0.92398
 Alpha virt. eigenvalues --    0.93515   0.94138   0.94709   0.95194   0.95322
 Alpha virt. eigenvalues --    0.96783   0.97309   0.97584   0.98492   0.98969
 Alpha virt. eigenvalues --    0.99228   0.99667   1.00030   1.00676   1.00794
 Alpha virt. eigenvalues --    1.02161   1.02525   1.02848   1.03354   1.04858
 Alpha virt. eigenvalues --    1.05120   1.05956   1.06747   1.07083   1.07439
 Alpha virt. eigenvalues --    1.07764   1.08975   1.09359   1.10006   1.10978
 Alpha virt. eigenvalues --    1.11972   1.12255   1.12871   1.13553   1.14244
 Alpha virt. eigenvalues --    1.15126   1.16060   1.16300   1.18273   1.19551
 Alpha virt. eigenvalues --    1.21267   1.21309   1.21744   1.22213   1.24109
 Alpha virt. eigenvalues --    1.26499   1.28631   1.29923   1.31092   1.32917
 Alpha virt. eigenvalues --    1.37597   1.39217   1.39766   1.40330   1.40940
 Alpha virt. eigenvalues --    1.41260   1.41570   1.43372   1.43632   1.43910
 Alpha virt. eigenvalues --    1.44458   1.45224   1.46071   1.46834   1.48089
 Alpha virt. eigenvalues --    1.48285   1.48895   1.49769   1.49908   1.50614
 Alpha virt. eigenvalues --    1.51879   1.53209   1.53686   1.54475   1.54869
 Alpha virt. eigenvalues --    1.55132   1.56397   1.57117   1.57927   1.58947
 Alpha virt. eigenvalues --    1.59399   1.59935   1.61541   1.63161   1.63752
 Alpha virt. eigenvalues --    1.64008   1.64248   1.64868   1.64995   1.66881
 Alpha virt. eigenvalues --    1.67178   1.67416   1.68256   1.68784   1.69122
 Alpha virt. eigenvalues --    1.69684   1.70405   1.70729   1.71295   1.71865
 Alpha virt. eigenvalues --    1.72175   1.72496   1.73021   1.73698   1.73980
 Alpha virt. eigenvalues --    1.74293   1.75030   1.76160   1.76559   1.77399
 Alpha virt. eigenvalues --    1.77760   1.79028   1.79752   1.80937   1.81067
 Alpha virt. eigenvalues --    1.82195   1.82548   1.82742   1.83442   1.84814
 Alpha virt. eigenvalues --    1.85216   1.85962   1.86383   1.86827   1.87158
 Alpha virt. eigenvalues --    1.87990   1.88164   1.89537   1.90338   1.90817
 Alpha virt. eigenvalues --    1.91312   1.92319   1.92776   1.92998   1.94079
 Alpha virt. eigenvalues --    1.95204   1.97137   1.97610   1.98999   1.99826
 Alpha virt. eigenvalues --    2.00867   2.01198   2.02151   2.02363   2.04110
 Alpha virt. eigenvalues --    2.05767   2.06865   2.07119   2.07780   2.08560
 Alpha virt. eigenvalues --    2.09451   2.10482   2.11230   2.11975   2.13417
 Alpha virt. eigenvalues --    2.13704   2.14641   2.15848   2.16590   2.17205
 Alpha virt. eigenvalues --    2.17882   2.19248   2.19480   2.20179   2.20362
 Alpha virt. eigenvalues --    2.20986   2.23253   2.23704   2.25314   2.25963
 Alpha virt. eigenvalues --    2.27219   2.28384   2.29137   2.30142   2.32206
 Alpha virt. eigenvalues --    2.32822   2.33895   2.35916   2.36656   2.38043
 Alpha virt. eigenvalues --    2.39015   2.39581   2.42676   2.44298   2.45070
 Alpha virt. eigenvalues --    2.45427   2.46988   2.47356   2.48254   2.48923
 Alpha virt. eigenvalues --    2.49969   2.53489   2.54592   2.55541   2.56696
 Alpha virt. eigenvalues --    2.57914   2.58237   2.59687   2.61336   2.63662
 Alpha virt. eigenvalues --    2.66182   2.66944   2.68979   2.70404   2.71023
 Alpha virt. eigenvalues --    2.73019   2.75647   2.76054   2.77371   2.79178
 Alpha virt. eigenvalues --    2.79752   2.81610   2.83682   2.84941   2.85970
 Alpha virt. eigenvalues --    2.87694   2.89534   2.91034   2.92094   2.93332
 Alpha virt. eigenvalues --    2.96400   3.06396   3.09359   3.11938   3.19803
 Alpha virt. eigenvalues --    3.32358   3.33544   3.35612   3.44807   3.50664
 Alpha virt. eigenvalues --    3.52434   3.58088   3.70971   3.75152
          Condensed to atoms (all electrons):
               1          2          3          4          5          6
     1  C    5.242931   0.421133   0.052512  -0.108192  -0.001803   0.000134
     2  C    0.421133   5.053309   0.388745   0.057654   0.012455  -0.000856
     3  C    0.052512   0.388745   5.046605   0.411193  -0.151513   0.011812
     4  C   -0.108192   0.057654   0.411193   5.100258   0.383699   0.059678
     5  C   -0.001803   0.012455  -0.151513   0.383699   5.045653   0.412324
     6  C    0.000134  -0.000856   0.011812   0.059678   0.412324   5.124021
     7  C   -0.000220   0.000060  -0.001082  -0.108348   0.052650   0.377441
     8  C   -0.000004   0.000001  -0.000011  -0.002237   0.019049  -0.158330
     9  C    0.000001  -0.000000   0.000002  -0.000070  -0.000067   0.023396
    10  C   -0.000013   0.000002  -0.000007  -0.000225   0.000095  -0.004777
    11  C   -0.002161  -0.000048  -0.000231   0.031861  -0.004948   0.030993
    12  C    0.019249  -0.000009   0.000092  -0.005172  -0.000010   0.000067
    13  C   -0.175231   0.021821  -0.004444   0.029733   0.000059  -0.000110
    14  C    0.252048   0.015692  -0.132963  -0.084282   0.027587  -0.004913
    15  C    0.006673  -0.125529   0.035813   0.309780   0.028719  -0.128640
    16  C    0.033162  -0.004579   0.028820  -0.059441  -0.134258  -0.014171
    17  C    0.320288  -0.140762   0.015223  -0.001533  -0.000006   0.000000
    18  C    0.000000   0.000000  -0.000000  -0.000020  -0.000196  -0.034291
    19  C   -0.026602  -0.023504  -0.000013  -0.000004  -0.000000  -0.000000
    20  C   -0.000000  -0.000000  -0.000000   0.000002  -0.000074  -0.000403
    21  N   -0.000000   0.000000  -0.000000  -0.000000  -0.000000  -0.000014
    22  C   -0.000000   0.000000  -0.000000  -0.000000  -0.000000   0.000000
    23  C   -0.000000   0.000000  -0.000000  -0.000000   0.000001   0.000054
    24  N    0.002484  -0.000327  -0.000007   0.000000  -0.000000  -0.000000
    25  O   -0.000089   0.000007  -0.000000  -0.000000  -0.000000   0.000000
    26  O    0.001568   0.000026   0.000000  -0.000000  -0.000000   0.000000
    27  H   -0.020571   0.378565  -0.038983   0.006586  -0.000351   0.000008
    28  H    0.006799  -0.033971   0.380420  -0.030605  -0.015710   0.001113
    29  H   -0.000067   0.001020  -0.016651  -0.033531   0.379382  -0.029780
    30  H   -0.000000   0.000008  -0.000354   0.006450  -0.049813   0.371814
    31  H   -0.000000   0.000000   0.000000  -0.000001   0.000006  -0.000240
    32  H   -0.000001   0.000000  -0.000000   0.000007  -0.000001   0.000054
    33  H   -0.000422   0.000006   0.000000   0.000050  -0.000001   0.000007
    34  H   -0.048750  -0.001152   0.000019  -0.000087   0.000001  -0.000001
    35  H    0.028822   0.012261   0.000015  -0.000130  -0.000000   0.000000
    36  H   -0.000000   0.000000  -0.000001  -0.000104   0.002698   0.013290
    37  H   -0.021996   0.007021   0.001081  -0.000062  -0.000000   0.000000
    38  H   -0.000000   0.000000   0.000000  -0.000000   0.000004   0.000013
    39  H   -0.000000   0.000000   0.000000  -0.000000   0.000000   0.000000
    40  H    0.000000  -0.000000  -0.000000   0.000000   0.000000  -0.000000
    41  H   -0.000000   0.000000  -0.000000  -0.000000  -0.000000  -0.000000
    42  H    0.000000   0.000000   0.000000  -0.000000   0.000000   0.000000
    43  H    0.000000  -0.000000   0.000000   0.000000   0.000001  -0.000075
    44  H   -0.000000   0.000000  -0.000000  -0.000000   0.000001   0.000078
               7          8          9         10         11         12
     1  C   -0.000220  -0.000004   0.000001  -0.000013  -0.002161   0.019249
     2  C    0.000060   0.000001  -0.000000   0.000002  -0.000048  -0.000009
     3  C   -0.001082  -0.000011   0.000002  -0.000007  -0.000231   0.000092
     4  C   -0.108348  -0.002237  -0.000070  -0.000225   0.031861  -0.005172
     5  C    0.052650   0.019049  -0.000067   0.000095  -0.004948  -0.000010
     6  C    0.377441  -0.158330   0.023396  -0.004777   0.030993   0.000067
     7  C    5.443011   0.291666   0.045279  -0.137075  -0.088581   0.028439
     8  C    0.291666   5.103475   0.423156   0.051583  -0.105919  -0.001843
     9  C    0.045279   0.423156   5.057571   0.379985   0.054990   0.012565
    10  C   -0.137075   0.051583   0.379985   5.051530   0.418432  -0.153832
    11  C   -0.088581  -0.105919   0.054990   0.418432   5.118557   0.371264
    12  C    0.028439  -0.001843   0.012565  -0.153832   0.371264   5.041334
    13  C   -0.004762   0.000140  -0.000795   0.012168   0.056299   0.409703
    14  C    0.032097  -0.000163   0.000072  -0.001263  -0.108656   0.057557
    15  C   -0.062475   0.032729  -0.005210   0.030221  -0.062600  -0.135269
    16  C    0.208770  -0.001159  -0.132370   0.036974   0.314628   0.031921
    17  C    0.000002   0.000000   0.000000  -0.000001  -0.000118   0.000660
    18  C   -0.067290   0.376058  -0.144191   0.015182  -0.001168  -0.000008
    19  C    0.000000   0.000000  -0.000000  -0.000000   0.000001  -0.000070
    20  C    0.014140  -0.020707  -0.018303   0.000357  -0.000020   0.000000
    21  N   -0.000041   0.001013   0.000066  -0.000004  -0.000000  -0.000000
    22  C    0.000001   0.000079   0.000004  -0.000000   0.000000  -0.000000
    23  C   -0.000099   0.001269   0.000047   0.000000   0.000000   0.000000
    24  N   -0.000000   0.000000  -0.000000  -0.000000   0.000000  -0.000000
    25  O   -0.000000   0.000000   0.000000  -0.000000  -0.000000  -0.000000
    26  O   -0.000000  -0.000000  -0.000000  -0.000000   0.000000  -0.000001
    27  H   -0.000000  -0.000000   0.000000   0.000000  -0.000001   0.000002
    28  H   -0.000051  -0.000001   0.000000  -0.000000   0.000006  -0.000001
    29  H    0.006422  -0.000411   0.000007  -0.000000   0.000052  -0.000000
    30  H   -0.000896  -0.045125  -0.000880  -0.000002  -0.000128   0.000001
    31  H    0.009453  -0.024582   0.374841  -0.037001   0.005970  -0.000387
    32  H    0.001506   0.006310  -0.034756   0.377169  -0.028171  -0.015948
    33  H   -0.000168  -0.000067   0.000948  -0.016676  -0.035039   0.377758
    34  H    0.000048   0.000000   0.000007  -0.000330   0.006465  -0.045238
    35  H    0.000000  -0.000000   0.000000  -0.000001  -0.000107   0.001912
    36  H   -0.044920   0.022724   0.011838  -0.000201  -0.000025   0.000001
    37  H   -0.000000  -0.000000   0.000000  -0.000000  -0.000000   0.000002
    38  H   -0.000905  -0.023201   0.009347   0.000953  -0.000071  -0.000001
    39  H   -0.000002  -0.000112   0.000053   0.000002  -0.000000  -0.000000
    40  H    0.000001   0.000020  -0.000018  -0.000000   0.000000   0.000000
    41  H   -0.000000   0.000002   0.000003   0.000000  -0.000000  -0.000000
    42  H   -0.000000  -0.000050   0.000001   0.000000  -0.000000  -0.000000
    43  H    0.000049   0.000267  -0.000041  -0.000001   0.000000   0.000000
    44  H   -0.000157   0.000876   0.000061   0.000002  -0.000000  -0.000000
              13         14         15         16         17         18
     1  C   -0.175231   0.252048   0.006673   0.033162   0.320288   0.000000
     2  C    0.021821   0.015692  -0.125529  -0.004579  -0.140762   0.000000
     3  C   -0.004444  -0.132963   0.035813   0.028820   0.015223  -0.000000
     4  C    0.029733  -0.084282   0.309780  -0.059441  -0.001533  -0.000020
     5  C    0.000059   0.027587   0.028719  -0.134258  -0.000006  -0.000196
     6  C   -0.000110  -0.004913  -0.128640  -0.014171   0.000000  -0.034291
     7  C   -0.004762   0.032097  -0.062475   0.208770   0.000002  -0.067290
     8  C    0.000140  -0.000163   0.032729  -0.001159   0.000000   0.376058
     9  C   -0.000795   0.000072  -0.005210  -0.132370   0.000000  -0.144191
    10  C    0.012168  -0.001263   0.030221   0.036974  -0.000001   0.015182
    11  C    0.056299  -0.108656  -0.062600   0.314628  -0.000118  -0.001168
    12  C    0.409703   0.057557  -0.135269   0.031921   0.000660  -0.000008
    13  C    5.145870   0.390258  -0.017830  -0.126325  -0.024823   0.000000
    14  C    0.390258   5.456984   0.217979  -0.064572  -0.075951  -0.000001
    15  C   -0.017830   0.217979   5.645404   0.132748   0.023718  -0.000226
    16  C   -0.126325  -0.064572   0.132748   5.645798  -0.000241   0.025986
    17  C   -0.024823  -0.075951   0.023718  -0.000241   5.132115  -0.000000
    18  C    0.000000  -0.000001  -0.000226   0.025986  -0.000000   5.098514
    19  C    0.000163   0.015633  -0.000197  -0.000000   0.397308  -0.000000
    20  C   -0.000000   0.000000  -0.000001  -0.000108   0.000000   0.546739
    21  N    0.000000  -0.000000   0.000000   0.000001   0.000000  -0.046055
    22  C    0.000000  -0.000000   0.000000  -0.000000  -0.000000   0.005922
    23  C   -0.000000   0.000000   0.000000  -0.000001  -0.000000  -0.000239
    24  N   -0.000034  -0.000010   0.000001  -0.000000  -0.027484   0.000000
    25  O   -0.000000  -0.000000   0.000000   0.000000   0.011127   0.000000
    26  O   -0.000011  -0.000045   0.000000   0.000000   0.014174   0.000000
    27  H   -0.000172   0.010520   0.000690   0.000064  -0.035237  -0.000000
    28  H    0.000053   0.001475   0.008470  -0.000315  -0.000363  -0.000000
    29  H    0.000006  -0.000194   0.009116   0.001195  -0.000001   0.000025
    30  H   -0.000001   0.000049   0.000441   0.013419  -0.000000   0.015655
    31  H    0.000009  -0.000000   0.000075   0.001207  -0.000000  -0.026111
    32  H    0.001063  -0.000048  -0.000342   0.008684   0.000000  -0.000379
    33  H   -0.026321   0.006946   0.001170   0.008922   0.000055  -0.000001
    34  H    0.376838  -0.001556   0.012322   0.000313   0.015370  -0.000000
    35  H    0.008989  -0.045831  -0.000887   0.000151   0.349778   0.000000
    36  H   -0.000000   0.000001   0.000096  -0.001677   0.000000   0.357167
    37  H    0.000023  -0.000721   0.000051   0.000000  -0.019669  -0.000000
    38  H    0.000000  -0.000000   0.000001   0.000059  -0.000000  -0.013376
    39  H    0.000000  -0.000000   0.000000   0.000000   0.000000   0.001187
    40  H   -0.000000   0.000000  -0.000000  -0.000000   0.000000   0.000591
    41  H    0.000000   0.000000   0.000000   0.000000   0.000000  -0.000442
    42  H    0.000000  -0.000000  -0.000000   0.000000  -0.000000  -0.000005
    43  H   -0.000000  -0.000000  -0.000000   0.000000   0.000000   0.006141
    44  H   -0.000000   0.000000   0.000000  -0.000001   0.000000   0.010928
              19         20         21         22         23         24
     1  C   -0.026602  -0.000000  -0.000000  -0.000000  -0.000000   0.002484
     2  C   -0.023504  -0.000000   0.000000   0.000000   0.000000  -0.000327
     3  C   -0.000013  -0.000000  -0.000000  -0.000000  -0.000000  -0.000007
     4  C   -0.000004   0.000002  -0.000000  -0.000000  -0.000000   0.000000
     5  C   -0.000000  -0.000074  -0.000000  -0.000000   0.000001  -0.000000
     6  C   -0.000000  -0.000403  -0.000014   0.000000   0.000054  -0.000000
     7  C    0.000000   0.014140  -0.000041   0.000001  -0.000099  -0.000000
     8  C    0.000000  -0.020707   0.001013   0.000079   0.001269   0.000000
     9  C   -0.000000  -0.018303   0.000066   0.000004   0.000047  -0.000000
    10  C   -0.000000   0.000357  -0.000004  -0.000000   0.000000  -0.000000
    11  C    0.000001  -0.000020  -0.000000   0.000000   0.000000   0.000000
    12  C   -0.000070   0.000000  -0.000000  -0.000000   0.000000  -0.000000
    13  C    0.000163  -0.000000   0.000000   0.000000  -0.000000  -0.000034
    14  C    0.015633   0.000000  -0.000000  -0.000000   0.000000  -0.000010
    15  C   -0.000197  -0.000001   0.000000   0.000000   0.000000   0.000001
    16  C   -0.000000  -0.000108   0.000001  -0.000000  -0.000001  -0.000000
    17  C    0.397308   0.000000   0.000000  -0.000000  -0.000000  -0.027484
    18  C   -0.000000   0.546739  -0.046055   0.005922  -0.000239   0.000000
    19  C    5.198353  -0.000000   0.000000   0.000000  -0.000000   0.277731
    20  C   -0.000000   4.743793   0.429179  -0.055676  -0.071557   0.000000
    21  N    0.000000   0.429179   6.337134   0.385920   0.385508   0.000000
    22  C    0.000000  -0.055676   0.385920   4.557815  -0.054221   0.000000
    23  C   -0.000000  -0.071557   0.385508  -0.054221   4.554243   0.000000
    24  N    0.277731   0.000000   0.000000   0.000000   0.000000   5.685517
    25  O   -0.086818   0.000000   0.000000   0.000000   0.000000   0.417655
    26  O   -0.124498   0.000000   0.000000   0.000000   0.000000   0.452735
    27  H    0.009430  -0.000000  -0.000000   0.000000   0.000000   0.000033
    28  H    0.000025   0.000000  -0.000000   0.000000   0.000000  -0.000000
    29  H    0.000000  -0.000001  -0.000000   0.000000   0.000000   0.000000
    30  H   -0.000000   0.002266  -0.000082  -0.000003  -0.000056   0.000000
    31  H    0.000000   0.006872  -0.000030   0.000080  -0.000011  -0.000000
    32  H    0.000000   0.000021  -0.000000  -0.000000   0.000000  -0.000000
    33  H   -0.000000   0.000000   0.000000   0.000000   0.000000  -0.000000
    34  H    0.002867   0.000000   0.000000   0.000000  -0.000000   0.000037
    35  H   -0.062313  -0.000000  -0.000000  -0.000000   0.000000  -0.015286
    36  H    0.000000  -0.067144  -0.008884  -0.000077   0.009105   0.000000
    37  H    0.389329   0.000000   0.000000   0.000000  -0.000000  -0.025584
    38  H    0.000000   0.372204  -0.033107  -0.010528   0.006544   0.000000
    39  H    0.000000  -0.004115  -0.020395   0.396309   0.005508   0.000000
    40  H   -0.000000   0.000122  -0.036218   0.392222  -0.001397   0.000000
    41  H    0.000000   0.003144  -0.025272   0.396648  -0.005003   0.000000
    42  H   -0.000000   0.006264  -0.021705  -0.005039   0.393565   0.000000
    43  H   -0.000000  -0.003068  -0.034778  -0.000819   0.390821   0.000000
    44  H   -0.000000  -0.012553  -0.019310   0.005444   0.390760   0.000000
              25         26         27         28         29         30
     1  C   -0.000089   0.001568  -0.020571   0.006799  -0.000067  -0.000000
     2  C    0.000007   0.000026   0.378565  -0.033971   0.001020   0.000008
     3  C   -0.000000   0.000000  -0.038983   0.380420  -0.016651  -0.000354
     4  C   -0.000000  -0.000000   0.006586  -0.030605  -0.033531   0.006450
     5  C   -0.000000  -0.000000  -0.000351  -0.015710   0.379382  -0.049813
     6  C    0.000000   0.000000   0.000008   0.001113  -0.029780   0.371814
     7  C   -0.000000  -0.000000  -0.000000  -0.000051   0.006422  -0.000896
     8  C    0.000000  -0.000000  -0.000000  -0.000001  -0.000411  -0.045125
     9  C    0.000000  -0.000000   0.000000   0.000000   0.000007  -0.000880
    10  C   -0.000000  -0.000000   0.000000  -0.000000  -0.000000  -0.000002
    11  C   -0.000000   0.000000  -0.000001   0.000006   0.000052  -0.000128
    12  C   -0.000000  -0.000001   0.000002  -0.000001  -0.000000   0.000001
    13  C   -0.000000  -0.000011  -0.000172   0.000053   0.000006  -0.000001
    14  C   -0.000000  -0.000045   0.010520   0.001475  -0.000194   0.000049
    15  C    0.000000   0.000000   0.000690   0.008470   0.009116   0.000441
    16  C    0.000000   0.000000   0.000064  -0.000315   0.001195   0.013419
[...]
    37  H    0.000000   0.000000   0.000000  -0.000003   0.006395   0.000000
    38  H    0.000212   0.000064   0.000000  -0.000000   0.000000   0.008810
    39  H    0.000005   0.000000   0.000000   0.000000  -0.000000   0.000009
    40  H   -0.000010   0.000000  -0.000000  -0.000000   0.000000  -0.000035
    41  H    0.000002  -0.000000   0.000000   0.000000  -0.000000   0.000003
    42  H    0.000000   0.000000  -0.000000  -0.000000   0.000000  -0.000098
    43  H   -0.000004   0.000000  -0.000000  -0.000000   0.000000  -0.000566
    44  H    0.000028  -0.000000   0.000000   0.000000  -0.000000   0.001251
              37         38         39         40         41         42
     1  C   -0.021996  -0.000000  -0.000000   0.000000  -0.000000   0.000000
     2  C    0.007021   0.000000   0.000000  -0.000000   0.000000   0.000000
     3  C    0.001081   0.000000   0.000000  -0.000000  -0.000000   0.000000
     4  C   -0.000062  -0.000000  -0.000000   0.000000  -0.000000  -0.000000
     5  C   -0.000000   0.000004   0.000000   0.000000  -0.000000   0.000000
     6  C    0.000000   0.000013   0.000000  -0.000000  -0.000000   0.000000
     7  C   -0.000000  -0.000905  -0.000002   0.000001  -0.000000  -0.000000
     8  C   -0.000000  -0.023201  -0.000112   0.000020   0.000002  -0.000050
     9  C    0.000000   0.009347   0.000053  -0.000018   0.000003   0.000001
    10  C   -0.000000   0.000953   0.000002  -0.000000   0.000000   0.000000
    11  C   -0.000000  -0.000071  -0.000000   0.000000  -0.000000  -0.000000
    12  C    0.000002  -0.000001  -0.000000   0.000000  -0.000000  -0.000000
    13  C    0.000023   0.000000   0.000000  -0.000000   0.000000   0.000000
    14  C   -0.000721  -0.000000  -0.000000   0.000000   0.000000  -0.000000
    15  C    0.000051   0.000001   0.000000  -0.000000   0.000000  -0.000000
    16  C    0.000000   0.000059   0.000000  -0.000000   0.000000   0.000000
    17  C   -0.019669  -0.000000   0.000000   0.000000   0.000000  -0.000000
    18  C   -0.000000  -0.013376   0.001187   0.000591  -0.000442  -0.000005
    19  C    0.389329   0.000000   0.000000  -0.000000   0.000000  -0.000000
    20  C    0.000000   0.372204  -0.004115   0.000122   0.003144   0.006264
    21  N    0.000000  -0.033107  -0.020395  -0.036218  -0.025272  -0.021705
    22  C    0.000000  -0.010528   0.396309   0.392222   0.396648  -0.005039
    23  C   -0.000000   0.006544   0.005508  -0.001397  -0.005003   0.393565
    24  N   -0.025584   0.000000   0.000000   0.000000   0.000000   0.000000
    25  O    0.008521   0.000000   0.000000   0.000000   0.000000   0.000000
    26  O    0.004299   0.000000   0.000000   0.000000   0.000000   0.000000
    27  H   -0.003322   0.000000   0.000000  -0.000000  -0.000000   0.000000
    28  H    0.000073  -0.000000  -0.000000   0.000000  -0.000000  -0.000000
    29  H   -0.000000   0.000000   0.000000  -0.000000   0.000000   0.000000
    30  H    0.000000  -0.000047  -0.000000   0.000003  -0.000000   0.000001
    31  H    0.000000   0.000212   0.000005  -0.000010   0.000002   0.000000
    32  H    0.000000   0.000064   0.000000   0.000000  -0.000000   0.000000
    33  H    0.000000   0.000000   0.000000  -0.000000   0.000000  -0.000000
    34  H   -0.000003  -0.000000   0.000000  -0.000000   0.000000  -0.000000
    35  H    0.006395   0.000000  -0.000000   0.000000  -0.000000   0.000000
    36  H    0.000000   0.008810   0.000009  -0.000035   0.000003  -0.000098
    37  H    0.612273   0.000000   0.000000   0.000000   0.000000  -0.000000
    38  H    0.000000   0.646812   0.004289  -0.000144   0.000553  -0.000302
    39  H    0.000000   0.004289   0.597373  -0.030171  -0.017661   0.000652
    40  H    0.000000  -0.000144  -0.030171   0.647089  -0.038596  -0.002241
    41  H    0.000000   0.000553  -0.017661  -0.038596   0.618833   0.005167
    42  H   -0.000000  -0.000302   0.000652  -0.002241   0.005167   0.611559
    43  H   -0.000000  -0.000319  -0.000504   0.006467  -0.001945  -0.031373
    44  H   -0.000000  -0.000175  -0.000250  -0.000759   0.001106  -0.018431
              43         44
     1  C    0.000000  -0.000000
     2  C   -0.000000   0.000000
     3  C    0.000000  -0.000000
     4  C    0.000000  -0.000000
     5  C    0.000001   0.000001
     6  C   -0.000075   0.000078
     7  C    0.000049  -0.000157
     8  C    0.000267   0.000876
     9  C   -0.000041   0.000061
    10  C   -0.000001   0.000002
    11  C    0.000000  -0.000000
    12  C    0.000000  -0.000000
    13  C   -0.000000  -0.000000
    14  C   -0.000000   0.000000
    15  C   -0.000000   0.000000
    16  C    0.000000  -0.000001
    17  C    0.000000   0.000000
    18  C    0.006141   0.010928
    19  C   -0.000000  -0.000000
    20  C   -0.003068  -0.012553
    21  N   -0.034778  -0.019310
    22  C   -0.000819   0.005444
    23  C    0.390821   0.390760
    24  N    0.000000   0.000000
    25  O    0.000000   0.000000
    26  O    0.000000   0.000000
    27  H   -0.000000   0.000000
    28  H    0.000000  -0.000000
    29  H   -0.000000   0.000000
    30  H    0.000356  -0.000296
    31  H   -0.000004   0.000028
    32  H    0.000000  -0.000000
    33  H   -0.000000   0.000000
    34  H   -0.000000   0.000000
    35  H    0.000000  -0.000000
    36  H   -0.000566   0.001251
    37  H   -0.000000  -0.000000
    38  H   -0.000319  -0.000175
    39  H   -0.000504  -0.000250
    40  H    0.006467  -0.000759
    41  H   -0.001945   0.001106
    42  H   -0.031373  -0.018431
    43  H    0.651841  -0.039791
    44  H   -0.039791   0.604241
 Mulliken charges:
               1
     1  C    0.018318
     2  C   -0.039048
     3  C   -0.026094
     4  C    0.037092
     5  C   -0.005631
     6  C   -0.049697
     7  C    0.006037
     8  C    0.053505
     9  C   -0.057539
    10  C   -0.023247
    11  C    0.028471
    12  C    0.005263
    13  C   -0.072338
    14  C    0.036272
    15  C    0.042990
    16  C    0.046398
    17  C    0.046371
    18  C   -0.126096
    19  C    0.033178
    20  C    0.128627
    21  N   -0.292923
    22  C   -0.014085
    23  C   -0.004844
    24  N    0.232536
    25  O   -0.273640
    26  O   -0.278041
    27  H    0.009871
    28  H    0.004926
    29  H    0.001015
    30  H    0.003962
    31  H   -0.000996
    32  H    0.004439
    33  H    0.005305
    34  H    0.015981
    35  H    0.042727
    36  H   -0.004343
    37  H    0.042290
    38  H    0.032310
    39  H    0.067822
    40  H    0.063075
    41  H    0.063457
    42  H    0.062036
    43  H    0.057339
    44  H    0.076946
 Sum of Mulliken charges =  -0.00000
 Mulliken charges with hydrogens summed into heavy atoms:
               1
     1  C    0.018318
     2  C   -0.029177
     3  C   -0.021168
     4  C    0.037092
     5  C   -0.004616
     6  C   -0.045734
     7  C    0.006037
     8  C    0.053505
     9  C   -0.058535
    10  C   -0.018807
    11  C    0.028471
    12  C    0.010567
    13  C   -0.056357
    14  C    0.036272
    15  C    0.042990
    16  C    0.046398
    17  C    0.089098
    18  C   -0.130439
    19  C    0.075468
    20  C    0.160937
    21  N   -0.292923
    22  C    0.180269
    23  C    0.191477
    24  N    0.232536
    25  O   -0.273640
    26  O   -0.278041
 Electronic spatial extent (au):  <R**2>=          14891.7280
 Charge=              0.0000 electrons
 Dipole moment (field-independent basis, Debye):
    X=            -12.1307    Y=              1.7261    Z=              0.3463  Tot=             12.2578
 Quadrupole moment (field-independent basis, Debye-Ang):
   XX=           -159.4162   YY=           -134.6226   ZZ=           -156.4548
   XY=              8.8173   XZ=             -3.6089   YZ=             -1.2424
 Traceless Quadrupole moment (field-independent basis, Debye-Ang):
   XX=             -9.2517   YY=             15.5420   ZZ=             -6.2903
   XY=              8.8173   XZ=             -3.6089   YZ=             -1.2424
 Octapole moment (field-independent basis, Debye-Ang**2):
  XXX=           -894.7229  YYY=              2.5189  ZZZ=              3.4464  XYY=            -14.9733
  XXY=             74.6737  XXZ=             18.3413  XZZ=             16.5131  YZZ=             -1.8889
  YYZ=              0.3746  XYZ=             13.3132
 Hexadecapole moment (field-independent basis, Debye-Ang**3):
 XXXX=         -18761.6175 YYYY=          -1914.6154 ZZZZ=           -234.9962 XXXY=            302.6531
 XXXZ=           -231.9111 YYYX=             42.0020 YYYZ=              7.5516 ZZZX=             -4.1849
 ZZZY=             -6.2244 XXYY=          -3140.1819 XXZZ=          -2889.6429 YYZZ=           -423.7308
 XXYZ=            -77.7717 YYXZ=              2.0027 ZZXY=            -30.4538
 N-N= 2.038663433068D+03 E-N=-6.653771006252D+03  KE= 1.101260385793D+03
  Exact polarizability:     703.274      26.913     281.775      -1.952       1.257     101.482
 Approx polarizability:     845.118      61.378     453.206       3.697       4.241     150.593
 No NMR shielding tensors so no spin-rotation constants.
 Leave Link  601 at Fri Aug 15 16:20:15 2025, MaxMem=  1342177280 cpu:               2.5 elap:               0.3
 (Enter /opt/bwhpc/common/chem/gaussian/g16.C.01/x86_64-Intel-avx2-source/g16/l9999.exe)

 ----------------------------------------------------------------------

 Electric dipole moment (input orientation):
 (Debye = 10**-18 statcoulomb cm , SI units = C m)
                  (au)            (Debye)         (10**-30 SI)
   Tot        0.482258D+01      0.122578D+02      0.408875D+02
   x          0.307677D+01      0.782037D+01      0.260860D+02
   y         -0.371339D+01     -0.943849D+01     -0.314834D+02
   z         -0.384238D-01     -0.976635D-01     -0.325770D+00

 Dipole polarizability, Alpha (input orientation).
 (esu units = cm**3 , SI units = C**2 m**2 J**-1)
 Alpha(0;0):
               (au)            (10**-24 esu)      (10**-40 SI)
   iso        0.362177D+03      0.536691D+02      0.597150D+02
   aniso      0.536982D+03      0.795725D+02      0.885363D+02
   xx         0.373295D+03      0.553166D+02      0.615480D+02
   yx        -0.175890D+03     -0.260642D+02     -0.290003D+02
   yy         0.611362D+03      0.905945D+02      0.100800D+03
   zx         0.187313D+01      0.277569D+00      0.308837D+00
   zy        -0.137435D+02     -0.203658D+01     -0.226600D+01
   zz         0.101875D+03      0.150963D+02      0.167969D+02

 First dipole hyperpolarizability, Beta (input orientation).
 ||, _|_  parallel and perpendicular components, (z) with respect to z axis,
 vector components x,y,z.  Values do not include the 1/n! factor of 1/2.
 (esu units = statvolt**-1 cm**4 , SI units = C**3 m**3 J**-2)
 Beta(0;0,0):
               (au)            (10**-30 esu)      (10**-50 SI)
   || (z)    -0.356356D+03     -0.307863D+01     -0.114260D+01
   _|_(z)    -0.118785D+03     -0.102621D+01     -0.380868D+00
   x         -0.329022D+05     -0.284250D+03     -0.105496D+03
   y          0.464782D+05      0.401535D+03      0.149026D+03
   z         -0.178178D+04     -0.153932D+02     -0.571302D+01
   ||         0.113947D+05      0.984409D+02      0.365354D+02
   xxx       -0.360821D+04     -0.311721D+02     -0.115692D+02
   xxy        0.537038D+04      0.463959D+02      0.172194D+02
   yxy       -0.746382D+04     -0.644816D+02     -0.239317D+02
   yyy        0.102278D+05      0.883601D+02      0.327940D+02
   xxz       -0.179710D+03     -0.155256D+01     -0.576216D+00
   yxz        0.233775D+03      0.201963D+01      0.749567D+00
   yyz       -0.388687D+03     -0.335795D+01     -0.124627D+01
   zxz        0.104627D+03      0.903893D+00      0.335471D+00
   zyz       -0.105435D+03     -0.910878D+00     -0.338063D+00
   zzz       -0.255291D+02     -0.220551D+00     -0.818554D-01

 ----------------------------------------------------------------------

 Dipole orientation:
     6          1.63072081          0.97345219         -7.53869209
     6          3.71015707          2.54328793         -6.94825715
     6          4.33735892          3.13913063         -4.48427887
     6          2.90131939          2.19286831         -2.44455040
     6          3.52766672          2.76346231          0.12200539
     6          2.12310128          1.84328148          2.08581873
     6         -0.05493670          0.27830073          1.68449241
     6         -1.55240963         -0.67207651          3.73402449
     6         -3.63040350         -2.24088982          3.12936719
     6         -4.22661237         -2.88479546          0.66255780
     6         -2.79996402         -1.96014352         -1.38514989
     6         -3.40328478         -2.55817584         -3.94929650
     6         -2.01436153         -1.63668940         -5.92253084
     6          0.12975956         -0.02171672         -5.51618086
     6          0.77454203          0.60458097         -2.94896379
     6         -0.69257190         -0.35337333         -0.87717288
     6          1.03503855          0.38262794        -10.15549179
     6         -0.97817587         -0.02899017          6.35464914
     6          2.25641910          1.18276582        -12.24377335
     6         -1.74019200         -1.40957396          8.39469638
     7         -1.43276435         -0.80769240         10.89133184
     6         -1.62112832         -2.77017019         12.79486488
     6         -0.16199946          1.50747706         11.59868043
     7          1.40115159          0.40308303        -14.73166825
     8          2.62265545          1.22690478        -16.52137387
     8         -0.43679579         -0.99288657        -14.92362916
     1          4.86294245          3.30820188         -8.47877828
     1          5.96225592          4.35330717         -4.09308078
     1          5.17789776          3.95066752          0.49212167
     1          2.69818581          2.29798613          4.01117016
     1         -4.85281810         -2.91690454          4.64843576
     1         -5.86012122         -4.09301416          0.28233714
     1         -5.02420012         -3.78643444         -4.31849032
     1         -2.56201214         -2.15371963         -7.83868291
     1         -0.57304748         -0.84471878        -10.55515372
     1          0.14740543          1.66386309          6.68638928
     1          3.90032089          2.41112668        -12.36267808
     1         -2.71549619         -3.21064727          8.10321398
     1         -2.86484359         -4.29267158         12.11922023
     1          0.23515806         -3.62112919         13.26570662
     1         -2.43649903         -2.00263101         14.55179814
     1         -0.43893154          1.86127080         13.62784159
     1          1.89903540          1.44482742         11.22244533
     1         -0.95530964          3.11783791         10.54397804

 Electric dipole moment (dipole orientation):
 (Debye = 10**-18 statcoulomb cm , SI units = C m)
                  (au)            (Debye)         (10**-30 SI)
   Tot        0.482258D+01      0.122578D+02      0.408875D+02
   x          0.000000D+00      0.000000D+00      0.000000D+00
   y          0.000000D+00      0.000000D+00      0.000000D+00
   z          0.482258D+01      0.122578D+02      0.408875D+02

 Dipole polarizability, Alpha (dipole orientation).
 (esu units = cm**3 , SI units = C**2 m**2 J**-1)
 Alpha(0;0):
               (au)            (10**-24 esu)      (10**-40 SI)
   iso        0.362177D+03      0.536691D+02      0.597150D+02
   aniso      0.536982D+03      0.795725D+02      0.885363D+02
   xx         0.225746D+03      0.334521D+02      0.372205D+02
   yx         0.944511D+02      0.139962D+02      0.155729D+02
   yy         0.173732D+03      0.257445D+02      0.286446D+02
   zx        -0.753286D+02     -0.111626D+02     -0.124200D+02
   zy        -0.410639D+02     -0.608504D+01     -0.677052D+01
   zz         0.687054D+03      0.101811D+03      0.113280D+03

 First dipole hyperpolarizability, Beta (dipole orientation).
 ||, _|_  parallel and perpendicular components, (z) with respect to z axis,
 vector components x,y,z.  Values do not include the 1/n! factor of 1/2.
 (esu units = statvolt**-1 cm**4 , SI units = C**3 m**3 J**-2)
 Beta(0;0,0):
               (au)            (10**-30 esu)      (10**-50 SI)
   || (z)    -0.113531D+05     -0.980818D+02     -0.364021D+02
   _|_(z)    -0.378436D+04     -0.326939D+02     -0.121340D+02
   x          0.475051D+04      0.410407D+02      0.152319D+02
   y          0.103473D+04      0.893924D+01      0.331771D+01
   z         -0.567654D+05     -0.490409D+03     -0.182011D+03
   ||         0.113947D+05      0.984409D+02      0.365354D+02
   xxx        0.974315D+02      0.841732D+00      0.312400D+00
   xxy        0.240807D+02      0.208038D+00      0.772113D-01
   yxy        0.154005D+02      0.133048D+00      0.493795D-01
   yyy       -0.430129D+01     -0.371598D-01     -0.137915D-01
   xxz        0.190844D+02      0.164874D+00      0.611914D-01
   yxz       -0.290763D+02     -0.251197D+00     -0.932292D-01
   yyz        0.172128D+03      0.148705D+01      0.551905D+00
   zxz        0.147067D+04      0.127055D+02      0.471551D+01
   zyz        0.325130D+03      0.280887D+01      0.104248D+01
   zzz       -0.191130D+05     -0.165122D+03     -0.612833D+02

 ----------------------------------------------------------------------
 Unable to Open any file for archive entry.
 1\1\GINC-N1706\SP\RBMK\CC-pVDZ\C22H18N2O2\KA_PR7831\15-Aug-2025\0\\#P 
 bmk/cc-pvdz polar\\p\\0,1\C,0,-1.7811853,3.7063509,-0.122116\C,0,-0.52
 15787,4.3449124,-0.1869911\C,0,0.6621492,3.6321401,-0.1663442\C,0,0.65
 4697,2.2232393,-0.0756911\C,0,1.8661732,1.4630705,-0.0654762\C,0,1.849
 7474,0.0989033,0.0254983\C,0,0.6244893,-0.6415185,0.1248434\C,0,0.6000
 981,-2.0713886,0.2345191\C,0,-0.6635921,-2.7035593,0.2993838\C,0,-1.85
 11992,-1.9917447,0.2487012\C,0,-1.8550344,-0.5866546,0.1524468\C,0,-3.
 0657019,0.1727248,0.1232675\C,0,-3.0569958,1.5369097,0.0381457\C,0,-1.
 8275252,2.2770403,-0.0293998\C,0,-0.5954759,1.5332927,-0.0027142\C,0,-
 0.6048642,0.1006952,0.0935307\C,0,-3.0053566,4.490721,-0.1507151\C,0,1
 .8325629,-2.8518108,0.2916384\C,0,-3.1195733,5.8320434,-0.228233\C,0,1
 .9217361,-4.1766847,-0.0222395\N,0,3.0182853,-4.9852745,0.1086898\C,0,
 3.0878951,-6.2280881,-0.6353866\C,0,4.2603286,-4.4475757,0.6200373\N,0
 ,-4.4307195,6.4556556,-0.2466902\O,0,-4.4378887,7.680393,-0.3158582\O,
 0,-5.4348778,5.7550285,-0.1941799\H,0,-0.4781248,5.4334912,-0.2580547\
 H,0,1.6194505,4.1570499,-0.2218409\H,0,2.8171948,1.9974668,-0.140427\H
 ,0,2.7983802,-0.4381031,0.0085025\H,0,-0.7093446,-3.7867905,0.4302268\
 H,0,-2.8059205,-2.5221157,0.3094867\H,0,-4.018022,-0.3631058,0.1715892
 \H,0,-4.0102943,2.0640871,0.0204451\H,0,-3.9637207,3.9708612,-0.106224
 7\H,0,2.7394141,-2.3316051,0.600012\H,0,-2.3248411,6.5728033,-0.282215
 6\H,0,1.0470119,-4.696955,-0.4256142\H,0,2.0727142,-6.6028518,-0.83301
 41\H,0,3.6031242,-6.1146782,-1.610813\H,0,3.6277497,-6.9942322,-0.0547
 689\H,0,4.9516905,-5.2716359,0.8491366\H,0,4.7600429,-3.7675189,-0.099
 7332\H,0,4.0786872,-3.8828475,1.5484834\\Version=ES64L-G16RevC.01\Stat
 e=1-A\HF=-1108.387592\RMSD=4.902e-09\Dipole=3.0767718,-3.7133873,-0.03
 84238\Polar=373.294734,-175.8896193,611.3619191,1.8731277,-13.7435311,
 101.8751313\HyperPolar=-3608.2101754,5370.3790449,-7463.8229845,10227.
 7883742,-179.7102278,233.7749995,-388.6866175,104.626671,-105.4351642,
 -25.5290611\Quadrupole=0.6458088,4.1825138,-4.8283226,11.1733158,-0.99
 02202,2.4379002\PG=C01 [X(C22H18N2O2)]\\@
 The archive entry for this job was punched.


 THE PROBLEM WITH THE LADDER OF SUCCESS IS YOU CAN'T
 CLIMB IT WHILE YOU'RE TWIDDLING YOUR THUMBS.
 Job cpu time:       0 days  1 hours 12 minutes 14.2 seconds.
 Elapsed time:       0 days  0 hours  9 minutes  3.9 seconds.
 File lengths (MBytes):  RWF=    114 Int=      0 D2E=      0 Chk=     15 Scr=      1
 Normal termination of Gaussian 16 at Fri Aug 15 16:20:15 2025.
