 Entering Gaussian System, Link 0=g16
 Initial command:
 /opt/bwhpc/common/chem/gaussian/g16.C.01/x86_64-Intel-avx2-source/g16/l1.exe "/scratch/ka_pr7831.18368308/Gau-122005.inp" -scrdir="/scratch/ka_pr7831.18368308/"
 Entering Link 1 = /opt/bwhpc/common/chem/gaussian/g16.C.01/x86_64-Intel-avx2-source/g16/l1.exe PID=    122007.
  
 Copyright (c) 1988-2019, Gaussian, Inc.  All Rights Reserved.
  
 This is part of the Gaussian(R) 16 program.  It is based on
 the Gaussian(R) 09 system (copyright 2009, Gaussian, Inc.),
 the Gaussian(R) 03 system (copyright 2003, Gaussian, Inc.),
 the Gaussian(R) 98 system (copyright 1998, Gaussian, Inc.),
 the Gaussian(R) 94 system (copyright 1995, Gaussian, Inc.),
 the Gaussian 92(TM) system (copyright 1992, Gaussian, Inc.),
 the Gaussian 90(TM) system (copyright 1990, Gaussian, Inc.),
 the Gaussian 88(TM) system (copyright 1988, Gaussian, Inc.),
 the Gaussian 86(TM) system (copyright 1986, Carnegie Mellon
 University), and the Gaussian 82(TM) system (copyright 1983,
 Carnegie Mellon University). Gaussian is a federally registered
 trademark of Gaussian, Inc.
  
 This software contains proprietary and confidential information,
 including trade secrets, belonging to Gaussian, Inc.
  
 This software is provided under written license and may be
 used, copied, transmitted, or stored only in accord with that
 written license.
  
 The following legend is applicable only to US Government
 contracts under FAR:
  
                    RESTRICTED RIGHTS LEGEND
  
 Use, reproduction and disclosure by the US Government is
 subject to restrictions as set forth in subparagraphs (a)
 and (c) of the Commercial Computer Software - Restricted
 Rights clause in FAR 52.227-19.
  
 Gaussian, Inc.
 340 Quinnipiac St., Bldg. 40, Wallingford CT 06492
  
  
 ---------------------------------------------------------------
 Warning -- This program may not be used in any manner that
 competes with the business of Gaussian, Inc. or will provide
 assistance to any competitor of Gaussian, Inc.  The licensee
 of this program is prohibited from giving any competitor of
 Gaussian, Inc. access to this program.  By using this program,
 the user acknowledges that Gaussian, Inc. is engaged in the
 business of creating and licensing software in the field of
 computational chemistry and represents and warrants to the
 licensee that it is not a competitor of Gaussian, Inc. and that
 it will not use this program in any manner prohibited above.
 ---------------------------------------------------------------
  

 Cite this work as:
 Gaussian 16, Revision C.01,
 M. J. Frisch, G. W. Trucks, H. B. Schlegel, G. E. Scuseria, 
 M. A. Robb, J. R. Cheeseman, G. Scalmani, V. Barone, 
 G. A. Petersson, H. Nakatsuji, X. Li, M. Caricato, A. V. Marenich, 
 J. Bloino, B. G. Janesko, R. Gomperts, B. Mennucci, H. P. Hratchian, 
 J. V. Ortiz, A. F. Izmaylov, J. L. Sonnenberg, D. Williams-Young, 
 F. Ding, F. Lipparini, F. Egidi, J. Goings, B. Peng, A. Petrone, 
 T. Henderson, D. Ranasinghe, V. G. Zakrzewski, J. Gao, N. Rega, 
 G. Zheng, W. Liang, M. Hada, M. Ehara, K. Toyota, R. Fukuda, 
 J. Hasegawa, M. Ishida, T. Nakajima, Y. Honda, O. Kitao, H. Nakai, 
 T. Vreven, K. Throssell, J. A. Montgomery, Jr., J. E. Peralta, 
 F. Ogliaro, M. J. Bearpark, J. J. Heyd, E. N. Brothers, K. N. Kudin, 
 V. N. Staroverov, T. A. Keith, R. Kobayashi, J. Normand, 
 K. Raghavachari, A. P. Rendell, J. C. Burant, S. S. Iyengar, 
 J. Tomasi, M. Cossi, J. M. Millam, M. Klene, C. Adamo, R. Cammi, 
 J. W. Ochterski, R. L. Martin, K. Morokuma, O. Farkas, 
 J. B. Foresman, and D. J. Fox, Gaussian, Inc., Wallingford CT, 2019.
 
 ******************************************
 Gaussian 16:  ES64L-G16RevC.01  3-Jul-2019
                15-Aug-2025 
 ******************************************
 %chk=b3.chk
 %mem=10GB
 %nprocs=16
 Will use up to   16 processors via shared memory.
 ----------------------
 #P b3lyp/cc-pvdz polar
 ----------------------
 1/38=1,172=1/1;
 2/12=2,17=6,18=5,40=1/2;
 3/5=16,11=2,25=1,30=1,74=-5/1,2,3;
 4//1;
 5/5=2,38=5,98=1/2;
 8/6=4,10=90,11=11/1;
 10/6=1,13=10/2;
 6/7=2,8=2,9=2,10=2,28=1/1;
 99/5=1,9=1/99;
 Leave Link    1 at Fri Aug 15 18:32:56 2025, MaxMem=  1342177280 cpu:               0.5 elap:               0.0
 (Enter /opt/bwhpc/common/chem/gaussian/g16.C.01/x86_64-Intel-avx2-source/g16/l101.exe)
 -
 p
 -
 Symbolic Z-matrix:
 Charge =  0 Multiplicity = 1
 C                    -7.11415   3.32345  -0.26023 
 C                    -5.84773   3.94913  -0.21908 
 C                    -4.67419   3.22211  -0.14495 
 C                    -4.70008   1.81202  -0.10902 
 C                    -3.49906   1.03855  -0.02188 
 C                    -3.53224  -0.32693   0.01254 
 C                    -4.76886  -1.05546  -0.04613 
 C                    -4.81606  -2.48477  -0.0185 
 C                    -6.08059  -3.11005  -0.06721 
 C                    -7.26045  -2.38276  -0.12177 
 C                    -7.24475  -0.97576  -0.15205 
 C                    -8.44559  -0.20078  -0.22607 
 C                    -8.41777   1.16437  -0.26239 
 C                    -7.17897   1.89314  -0.22589 
 C                    -5.95854   1.13521  -0.15224 
 C                    -5.98752  -0.29941  -0.11873 
 C                    -8.32792   4.12394  -0.33438 
 C                    -3.58976  -3.28284   0.04699 
 C                    -8.41828   5.46665  -0.40183 
 C                    -3.50506  -4.54003   0.52921 
 O                    -2.34589  -5.22684   0.50857 
 C                    -2.33171  -6.47572   1.17386 
 N                    -9.71923   6.11165  -0.46885 
 O                    -9.70318   7.33592  -0.53328 
 O                    -10.73461   5.42626  -0.45819 
 H                    -5.7894    5.03899  -0.24224 
 H                    -3.71111   3.73813  -0.11132 
 H                    -2.54213   1.56555   0.02306 
 H                    -2.59293  -0.87378   0.09589 
 H                    -6.13346  -4.20059  -0.09552 
 H                    -8.22043  -2.90498  -0.16413 
 H                    -9.40411  -0.72664  -0.2543 
 H                    -9.36296   1.70309  -0.32019 
 H                    -9.29456   3.61769  -0.33815 
 H                    -2.65493  -2.84647  -0.31226 
 H                    -7.61077   6.19534  -0.41776 
 H                    -4.36516  -5.06364   0.96716 
 H                    -1.33806  -6.91507   1.01329 
 H                    -2.49991  -6.35913   2.25993 
 H                    -3.09553  -7.162     0.76439 
 
 ITRead=  0  0  0  0  0  0  0  0  0  0  0  0  0  0  0  0  0  0  0  0
 ITRead=  0  0  0  0  0  0  0  0  0  0  0  0  0  0  0  0  0  0  0  0
 MicOpt= -1 -1 -1 -1 -1 -1 -1 -1 -1 -1 -1 -1 -1 -1 -1 -1 -1 -1 -1 -1
 MicOpt= -1 -1 -1 -1 -1 -1 -1 -1 -1 -1 -1 -1 -1 -1 -1 -1 -1 -1 -1 -1
 NAtoms=     40 NQM=       40 NQMF=       0 NMMI=      0 NMMIF=      0
                NMic=       0 NMicF=      0.
                    Isotopes and Nuclear Properties:
 (Nuclear quadrupole moments (NQMom) in fm**2, nuclear magnetic moments (NMagM)
  in nuclear magnetons)

  Atom         1           2           3           4           5           6           7           8           9          10
 IAtWgt=          12          12          12          12          12          12          12          12          12          12
 AtmWgt=  12.0000000  12.0000000  12.0000000  12.0000000  12.0000000  12.0000000  12.0000000  12.0000000  12.0000000  12.0000000
 NucSpn=           0           0           0           0           0           0           0           0           0           0
 AtZEff=  -0.0000000  -0.0000000  -0.0000000  -0.0000000  -0.0000000  -0.0000000  -0.0000000  -0.0000000  -0.0000000  -0.0000000
 NQMom=    0.0000000   0.0000000   0.0000000   0.0000000   0.0000000   0.0000000   0.0000000   0.0000000   0.0000000   0.0000000
 NMagM=    0.0000000   0.0000000   0.0000000   0.0000000   0.0000000   0.0000000   0.0000000   0.0000000   0.0000000   0.0000000
 AtZNuc=   6.0000000   6.0000000   6.0000000   6.0000000   6.0000000   6.0000000   6.0000000   6.0000000   6.0000000   6.0000000

  Atom        11          12          13          14          15          16          17          18          19          20
 IAtWgt=          12          12          12          12          12          12          12          12          12          12
 AtmWgt=  12.0000000  12.0000000  12.0000000  12.0000000  12.0000000  12.0000000  12.0000000  12.0000000  12.0000000  12.0000000
 NucSpn=           0           0           0           0           0           0           0           0           0           0
 AtZEff=  -0.0000000  -0.0000000  -0.0000000  -0.0000000  -0.0000000  -0.0000000  -0.0000000  -0.0000000  -0.0000000  -0.0000000
 NQMom=    0.0000000   0.0000000   0.0000000   0.0000000   0.0000000   0.0000000   0.0000000   0.0000000   0.0000000   0.0000000
 NMagM=    0.0000000   0.0000000   0.0000000   0.0000000   0.0000000   0.0000000   0.0000000   0.0000000   0.0000000   0.0000000
 AtZNuc=   6.0000000   6.0000000   6.0000000   6.0000000   6.0000000   6.0000000   6.0000000   6.0000000   6.0000000   6.0000000

  Atom        21          22          23          24          25          26          27          28          29          30
 IAtWgt=          16          12          14          16          16           1           1           1           1           1
 AtmWgt=  15.9949146  12.0000000  14.0030740  15.9949146  15.9949146   1.0078250   1.0078250   1.0078250   1.0078250   1.0078250
 NucSpn=           0           0           2           0           0           1           1           1           1           1
 AtZEff=  -0.0000000  -0.0000000  -0.0000000  -0.0000000  -0.0000000  -0.0000000  -0.0000000  -0.0000000  -0.0000000  -0.0000000
 NQMom=    0.0000000   0.0000000   2.0440000   0.0000000   0.0000000   0.0000000   0.0000000   0.0000000   0.0000000   0.0000000
 NMagM=    0.0000000   0.0000000   0.4037610   0.0000000   0.0000000   2.7928460   2.7928460   2.7928460   2.7928460   2.7928460
 AtZNuc=   8.0000000   6.0000000   7.0000000   8.0000000   8.0000000   1.0000000   1.0000000   1.0000000   1.0000000   1.0000000

  Atom        31          32          33          34          35          36          37          38          39          40
 IAtWgt=           1           1           1           1           1           1           1           1           1           1
 AtmWgt=   1.0078250   1.0078250   1.0078250   1.0078250   1.0078250   1.0078250   1.0078250   1.0078250   1.0078250   1.0078250
 NucSpn=           1           1           1           1           1           1           1           1           1           1
 AtZEff=  -0.0000000  -0.0000000  -0.0000000  -0.0000000  -0.0000000  -0.0000000  -0.0000000  -0.0000000  -0.0000000  -0.0000000
 NQMom=    0.0000000   0.0000000   0.0000000   0.0000000   0.0000000   0.0000000   0.0000000   0.0000000   0.0000000   0.0000000
 NMagM=    2.7928460   2.7928460   2.7928460   2.7928460   2.7928460   2.7928460   2.7928460   2.7928460   2.7928460   2.7928460
 AtZNuc=   1.0000000   1.0000000   1.0000000   1.0000000   1.0000000   1.0000000   1.0000000   1.0000000   1.0000000   1.0000000
 Leave Link  101 at Fri Aug 15 18:32:57 2025, MaxMem=  1342177280 cpu:               3.3 elap:               0.2
 (Enter /opt/bwhpc/common/chem/gaussian/g16.C.01/x86_64-Intel-avx2-source/g16/l202.exe)
                          Input orientation:                          
 ---------------------------------------------------------------------
 Center     Atomic      Atomic             Coordinates (Angstroms)
 Number     Number       Type             X           Y           Z
 ---------------------------------------------------------------------
      1          6           0       -7.114154    3.323450   -0.260230
      2          6           0       -5.847733    3.949132   -0.219080
      3          6           0       -4.674192    3.222112   -0.144951
      4          6           0       -4.700077    1.812020   -0.109015
      5          6           0       -3.499056    1.038548   -0.021883
      6          6           0       -3.532240   -0.326929    0.012544
      7          6           0       -4.768862   -1.055461   -0.046134
      8          6           0       -4.816060   -2.484765   -0.018500
      9          6           0       -6.080594   -3.110050   -0.067210
     10          6           0       -7.260448   -2.382758   -0.121773
     11          6           0       -7.244746   -0.975756   -0.152049
     12          6           0       -8.445594   -0.200778   -0.226068
     13          6           0       -8.417775    1.164372   -0.262385
     14          6           0       -7.178971    1.893144   -0.225886
     15          6           0       -5.958535    1.135212   -0.152245
     16          6           0       -5.987519   -0.299411   -0.118730
     17          6           0       -8.327922    4.123940   -0.334378
     18          6           0       -3.589756   -3.282836    0.046990
     19          6           0       -8.418283    5.466647   -0.401834
     20          6           0       -3.505055   -4.540032    0.529212
     21          8           0       -2.345892   -5.226837    0.508567
     22          6           0       -2.331709   -6.475719    1.173857
     23          7           0       -9.719234    6.111649   -0.468854
     24          8           0       -9.703179    7.335917   -0.533284
     25          8           0      -10.734606    5.426265   -0.458187
     26          1           0       -5.789396    5.038989   -0.242245
     27          1           0       -3.711106    3.738129   -0.111315
     28          1           0       -2.542128    1.565550    0.023058
     29          1           0       -2.592928   -0.873782    0.095893
     30          1           0       -6.133457   -4.200591   -0.095517
     31          1           0       -8.220428   -2.904975   -0.164132
     32          1           0       -9.404108   -0.726637   -0.254301
     33          1           0       -9.362956    1.703094   -0.320191
     34          1           0       -9.294559    3.617689   -0.338150
     35          1           0       -2.654930   -2.846470   -0.312261
     36          1           0       -7.610767    6.195340   -0.417761
     37          1           0       -4.365160   -5.063636    0.967162
     38          1           0       -1.338057   -6.915073    1.013290
     39          1           0       -2.499906   -6.359131    2.259926
     40          1           0       -3.095528   -7.162001    0.764393
 ---------------------------------------------------------------------
                    Distance matrix (angstroms):
                    1          2          3          4          5
     1  C    0.000000
     2  C    1.413150   0.000000
     3  C    2.444786   1.382481   0.000000
     4  C    2.852202   2.428266   1.410787   0.000000
     5  C    4.283284   3.745219   2.482748   1.431189   0.000000
     6  C    5.121502   4.868249   3.731561   2.440025   1.366314
     7  C    4.972032   5.122483   4.279762   2.868996   2.449055
     8  C    6.251003   6.519173   5.710040   4.299303   3.761416
     9  C    6.518852   7.064654   6.486932   5.112177   4.886437
    10  C    5.709762   6.488302   6.172830   4.914451   5.085606
    11  C    4.302550   5.119635   4.922387   3.774770   4.254946
    12  C    3.767504   4.895986   5.093744   4.253699   5.103514
    13  C    2.522113   3.789707   4.273465   3.776804   4.926202
    14  C    1.432187   2.449352   2.836657   2.482973   3.783348
    15  C    2.476995   2.816894   2.450458   1.429565   2.464828
    16  C    3.796638   4.252027   3.758542   2.473003   2.827006
    17  C    1.455855   2.489013   3.768146   4.307786   5.738923
    18  C    7.493916   7.580937   6.597513   5.216772   4.322885
    19  C    2.512786   2.990648   4.372888   5.221790   6.629571
    20  C    8.688105   8.838211   7.878594   6.494919   5.605738
    21  O    9.820121   9.848389   8.788219   7.447758   6.392669
    22  C   10.997823  11.089644  10.063518   8.714445   7.697838
    23  N    3.821520   4.441552   5.822954   6.618779   8.039076
    24  O    4.783043   5.141352   6.508833   7.464883   8.854915
    25  O    4.191502   5.110834   6.456395   7.042743   8.473229
    26  H    2.167575   1.091663   2.134055   3.408474   4.614948
    27  H    3.431453   2.149723   1.093132   2.165170   2.709372
    28  H    4.906515   4.082538   2.705202   2.175990   1.093371
    29  H    6.179407   5.826960   4.600653   3.419882   2.119421
    30  H    7.589473   8.155666   7.564946   6.181121   5.864646
    31  H    6.326639   7.253378   7.079361   5.886082   6.153289
    32  H    4.652648   5.874680   6.162523   5.347317   6.167621
    33  H    2.772411   4.172733   4.931799   4.668930   5.908971
    34  H    2.201548   3.464772   4.641293   4.941883   6.351366
    35  H    7.612838   7.508853   6.397897   5.091705   3.986256
    36  H    2.918765   2.862379   4.187838   5.270762   6.607222
    37  H    8.911043   9.210602   8.365758   6.967423   6.242195
    38  H   11.824234  11.827377  10.734702   9.419389   8.306720
    39  H   11.017933  11.118170  10.114898   8.787510   7.805806
    40  H   11.275810  11.489087  10.542717   9.158082   8.248034
                    6          7          8          9         10
     6  C    0.000000
     7  C    1.436467   0.000000
     8  C    2.511059   1.430350   0.000000
     9  C    3.774418   2.437708   1.411524   0.000000
    10  C    4.259579   2.824082   2.448695   1.387079   0.000000
    11  C    3.772369   2.479430   2.862423   2.432624   1.407415
    12  C    4.920762   3.779050   4.293391   3.752643   2.485254
    13  C    5.115468   4.276563   5.133034   4.875571   3.733806
    14  C    4.276004   3.812507   4.979201   5.124798   4.277945
    15  C    2.837590   2.495121   3.798338   4.247867   3.751269
    16  C    2.458939   1.435969   2.481559   2.812652   2.441453
    17  C    6.552034   6.290961   7.490523   7.579741   6.597107
    18  C    2.956667   2.521936   1.464591   2.499434   3.783200
    19  C    7.590167   7.482158   8.737729   8.895869   7.939280
    20  C    4.244752   3.751061   2.498568   3.005656   4.379565
    21  O    5.065823   4.855806   3.728067   4.331316   5.713053
    22  C    6.371620   6.066901   4.849889   5.188652   6.536318
    23  N    8.942366   8.720800   9.906678   9.921732   8.849918
    24  O    9.853812   9.746796  10.981563  11.066100  10.029402
    25  O    9.230108   8.818881   9.889738   9.730435   8.553583
    26  H    5.826898   6.182417   7.589751   8.156119   7.567089
    27  H    4.070876   4.909338   6.320914   7.246653   7.075535
    28  H    2.135862   3.439888   4.645163   5.864309   6.154076
    29  H    1.090093   2.188120   2.747848   4.146241   4.910207
    30  H    4.667255   3.428760   2.164607   1.092188   2.138999
    31  H    5.353190   3.917644   3.433294   2.151822   1.093648
    32  H    5.891503   4.651556   4.919025   4.094070   2.712117
    33  H    6.182957   5.365672   6.188978   5.831317   4.599358
    34  H    6.991946   6.511954   7.576218   7.460929   6.339542
    35  H    2.687612   2.783387   2.210793   3.444517   4.632722
    36  H    7.704513   7.796708   9.127652   9.436875   8.590349
    37  H    4.903208   4.153939   2.797395   2.798060   4.093359
    38  H    7.015667   6.872252   5.726143   6.175543   7.543538
    39  H    6.519502   6.212486   5.056333   5.365949   6.644305
    40  H    6.890153   6.383324   5.044768   5.101028   6.401017
                   11         12         13         14         15
    11  C    0.000000
    12  C    1.431120   0.000000
    13  C    2.443014   1.365916   0.000000
    14  C    2.870604   2.447211   1.437733   0.000000
    15  C    2.471947   2.824142   2.461878   1.438522   0.000000
    16  C    1.427997   2.462394   2.840677   2.497666   1.435307
    17  C    5.216648   4.327674   2.961807   2.511635   3.818333
    18  C    4.326799   5.757847   6.571388   6.304576   5.016966
    19  C    6.553177   5.670215   4.304534   3.786393   4.987382
    20  C    5.210899   6.618799   7.569786   7.446715   6.220316
    21  O    6.519729   7.937715   8.849275   8.636677   7.345987
    22  C    7.493034   8.872106   9.872891   9.772056   8.534558
    23  N    7.513639   6.444210   5.119763   4.930290   6.245641
    24  O    8.676009   7.647069   6.309803   6.007487   7.253709
    25  O    7.297857   6.079232   4.854871   5.017913   6.427876
    26  H    6.188969   5.874590   4.682034   3.439118   3.908476
    27  H    5.891433   6.159832   5.366542   3.929781   3.439155
    28  H    5.348225   6.167081   5.896240   4.655062   3.447863
    29  H    4.659537   5.900025   6.181527   5.365744   3.927460
    30  H    3.411410   4.621853   5.833419   6.184149   5.338970
    31  H    2.161941   2.714263   4.075314   4.910233   4.630271
    32  H    2.176088   1.093652   2.132800   3.437339   3.917764
    33  H    3.419258   2.115453   1.089464   2.194267   3.455543
    34  H    5.033499   3.913310   2.606388   2.731735   4.162489
    35  H    4.958997   6.367017   7.021376   6.552735   5.176215
    36  H    7.185346   6.453216   5.097651   4.328066   5.329659
    37  H    5.124004   6.459190   7.531505   7.598532   6.497510
    38  H    8.457096   9.855701  10.817910  10.641264   9.354911
    39  H    7.570459   8.913848   9.898804   9.806780   8.599177
    40  H    7.505032   8.835318   9.935244   9.982524   8.825008
                   16         17         18         19         20
    16  C    0.000000
    17  C    5.008995   0.000000
    18  C    3.831129   8.800908   0.000000
    19  C    6.263879   1.347433  10.003477   0.000000
    20  C    4.956341   9.953403   1.349168  11.186611   0.000000
    21  O    6.159096  11.132487   2.353591  12.330991   1.347511
    22  C    7.292633  12.271190   3.612065  13.496269   2.353549
    23  N    7.426303   2.429984  11.229111   1.453614  12.372164
    24  O    8.501542   3.499670  12.266563   2.272093  13.438147
    25  O    7.445363   2.739253  11.276192   2.317360  12.351859
    26  H    5.343503   2.699985   8.612482   2.668222   9.877803
    27  H    4.635066   4.638275   7.023798   5.022916   8.305461
    28  H    3.920319   6.336287   4.960336   7.065995   6.201737
    29  H    3.449523   7.619220   2.607604   8.624588   3.802779
    30  H    3.903977   8.612232   2.707951   9.938297   2.722866
    31  H    3.431750   7.031798   4.650857   8.377333   5.038737
    32  H    3.445865   4.969174   6.358586   6.272988   7.067864
    33  H    3.929910   2.632868   7.637025   3.881160   8.603087
    34  H    5.131115   1.091188   8.961605   2.047085  10.040871
    35  H    4.198941   8.987210   1.092417  10.115936   2.073388
    36  H    6.701205   2.193618  10.306325   1.087810  11.532642
    37  H    5.148694  10.090047   2.149237  11.366126   1.098063
    38  H    8.164921  13.135228   4.381441  14.333149   3.251312
    39  H    7.385232  12.271551   3.943152  13.489298   2.704592
    40  H    7.499243  12.488302   3.975783  13.754073   2.664159
                   21         22         23         24         25
    21  O    0.000000
    22  C    1.415104   0.000000
    23  N   13.560339  14.687268   0.000000
    24  O   14.595818  15.748466   1.226067   0.000000
    25  O   13.593885  14.660473   1.225090   2.171693   0.000000
    26  H   10.853968  12.105761   4.079899   4.547338   4.965050
    27  H    9.089482  10.386390   6.469855   7.001933   7.231851
    28  H    6.812543   8.125922   8.509985   9.213431   9.069367
    29  H    4.379545   5.710687   9.994970  10.878910  10.309438
    30  H    3.970358   4.608775  10.924261  12.084104  10.676069
    31  H    6.352459   7.015514   9.145425  10.354260   8.707303
    32  H    8.405485   9.225530   6.848905   8.072921   6.298412
    33  H    9.896968  10.888691   4.425426   5.647110   3.970198
    34  H   11.279474  12.354932   2.533233   3.745699   2.314971
    35  H    2.536811   3.935030  11.409505  12.385785  11.564627
    36  H   12.611230  13.818735   2.110745   2.385886   3.217372
    37  H    2.077110   2.484275  12.474584  13.582883  12.354736
    38  H    2.029930   1.098252  15.560731  16.596923  15.581046
    39  H    2.091188   1.105182  14.665786  15.723978  14.631951
    40  H    2.090995   1.105469  14.885703  15.985451  14.775474
                   26         27         28         29         30
    26  H    0.000000
    27  H    2.455334   0.000000
    28  H    4.762343   2.470763   0.000000
    29  H    6.729978   4.750050   2.440947   0.000000
    30  H    9.247148   8.300079   6.794121   4.862062   0.000000
    31  H    8.307984   8.029172   7.229365   5.988499   2.457392
    32  H    6.805053   7.236356   7.240015   6.821764   4.773964
    33  H    4.889234   6.010691   6.830844   7.255804   6.733026
    34  H    3.783578   5.589356   7.066617   8.079206   8.436643
    35  H    8.485885   6.671794   4.426181   2.015424   3.739086
    36  H    2.164566   4.619431   6.878981   8.684183  10.505316
    37  H   10.273955   8.891680   6.939804   4.631932   2.236293
    38  H   12.817581  10.972092   8.622720   6.238070   5.620829
    39  H   12.124304  10.442435   8.234435   5.897520   4.838398
    40  H   12.535326  10.952563   8.776444   6.343595   4.328788
                   31         32         33         34         35
    31  H    0.000000
    32  H    2.480804   0.000000
    33  H    4.750161   2.430973   0.000000
    34  H    6.612805   4.346516   1.915901   0.000000
    35  H    5.567776   7.074493   8.105320   9.266644   0.000000
    36  H    9.124240   7.152382   4.822858   3.079899  10.311439
    37  H    4.561002   6.759625   8.510222  10.068179   3.078577
    38  H    8.051971  10.245228  11.851159  13.269190   4.477139
    39  H    7.108560   9.258204  10.897611  12.347237   4.356485
    40  H    6.726739   9.069169  10.910861  12.483802   4.469577
                   36         37         38         39         40
    36  H    0.000000
    37  H   11.799005   0.000000
    38  H   14.604031   3.548703   0.000000
    39  H   13.816861   2.613181   1.792502   0.000000
    40  H   14.149326   2.460937   1.792101   1.798884   0.000000
 Stoichiometry    C21H15NO3
 Framework group  C1[X(C21H15NO3)]
 Deg. of freedom   114
 Full point group                 C1      NOp   1
 Largest Abelian subgroup         C1      NOp   1
 Largest concise Abelian subgroup C1      NOp   1
                         Standard orientation:                         
 ---------------------------------------------------------------------
 Center     Atomic      Atomic             Coordinates (Angstroms)
 Number     Number       Type             X           Y           Z
 ---------------------------------------------------------------------
      1          6           0       -2.867235    0.506059    0.020748
      2          6           0       -2.791440    1.917173    0.022960
      3          6           0       -1.581709    2.585268   -0.015141
      4          6           0       -0.364996    1.872575   -0.059826
      5          6           0        0.899557    2.542156   -0.089303
      6          6           0        2.073791    1.844929   -0.132463
      7          6           0        2.100566    0.408974   -0.159895
      8          6           0        3.322949   -0.331899   -0.212705
      9          6           0        3.247125   -1.741351   -0.222540
     10          6           0        2.035644   -2.414358   -0.164549
     11          6           0        0.817111   -1.711920   -0.113800
     12          6           0       -0.447622   -2.380307   -0.071177
     13          6           0       -1.624334   -1.687959   -0.029602
     14          6           0       -1.652024   -0.250502   -0.024388
     15          6           0       -0.392610    0.443297   -0.067558
     16          6           0        0.843738   -0.284173   -0.115898
     17          6           0       -4.160458   -0.161088    0.065494
     18          6           0        4.619481    0.347155   -0.266682
     19          6           0       -5.377685    0.416554    0.081748
     20          6           0        5.792672   -0.183848    0.135704
     21          8           0        6.952862    0.489215    0.006349
     22          6           0        8.099088   -0.094895    0.595840
     23          7           0       -6.577557   -0.402590    0.129728
     24          8           0       -7.639708    0.209815    0.135790
     25          8           0       -6.475037   -1.622989    0.160774
     26          1           0       -3.712802    2.501522    0.059815
     27          1           0       -1.558847    3.678143   -0.008786
     28          1           0        0.910769    3.635311   -0.070677
     29          1           0        3.013492    2.397418   -0.136987
     30          1           0        4.167640   -2.322464   -0.311053
     31          1           0        2.018991   -3.507768   -0.180143
     32          1           0       -0.459266   -3.473896   -0.072992
     33          1           0       -2.557784   -2.248951    0.000253
     34          1           0       -4.191161   -1.251576    0.089677
     35          1           0        4.666512    1.367214   -0.654809
     36          1           0       -5.619514    1.476926    0.060323
     37          1           0        5.864185   -1.179709    0.592747
     38          1           0        8.952290    0.551936    0.351271
     39          1           0        8.002433   -0.159011    1.694920
     40          1           0        8.291366   -1.106324    0.193222
 ---------------------------------------------------------------------
 Rotational constants (GHZ):           0.7346839           0.0828201           0.0747150
 Leave Link  202 at Fri Aug 15 18:32:57 2025, MaxMem=  1342177280 cpu:               0.1 elap:               0.0
 (Enter /opt/bwhpc/common/chem/gaussian/g16.C.01/x86_64-Intel-avx2-source/g16/l301.exe)
 Standard basis: CC-pVDZ (5D, 7F)
 Ernie: Thresh=  0.10000D-02 Tol=  0.10000D-05 Strict=F.
 Ernie:  50 primitive shells out of 625 were deleted.
 There are   450 symmetry adapted cartesian basis functions of A   symmetry.
 There are   425 symmetry adapted basis functions of A   symmetry.
   425 basis functions,   930 primitive gaussians,   450 cartesian basis functions
    86 alpha electrons       86 beta electrons
       nuclear repulsion energy      1906.5092031784 Hartrees.
 IExCor=  402 DFT=T Ex+Corr=B3LYP ExCW=0 ScaHFX=  0.200000
 ScaDFX=  0.800000  0.720000  1.000000  0.810000 ScalE2=  1.000000  1.000000
 IRadAn=      5 IRanWt=     -1 IRanGd=            0 ICorTp=0 IEmpDi=  4
 NAtoms=   40 NActive=   40 NUniq=   40 SFac= 1.00D+00 NAtFMM=   60 NAOKFM=F Big=F
 Integral buffers will be    131072 words long.
 Raffenetti 2 integral format.
 Two-electron integral symmetry is turned on.
 Leave Link  301 at Fri Aug 15 18:32:57 2025, MaxMem=  1342177280 cpu:               0.7 elap:               0.0
 (Enter /opt/bwhpc/common/chem/gaussian/g16.C.01/x86_64-Intel-avx2-source/g16/l302.exe)
 NPDir=0 NMtPBC=     1 NCelOv=     1 NCel=       1 NClECP=     1 NCelD=      1
         NCelK=      1 NCelE2=     1 NClLst=     1 CellRange=     0.0.
 One-electron integrals computed using PRISM.
 One-electron integral symmetry used in STVInt
 NBasis=   425 RedAO= T EigKep=  6.95D-05  NBF=   425
 NBsUse=   425 1.00D-06 EigRej= -1.00D+00 NBFU=   425
 Precomputing XC quadrature grid using
 IXCGrd= 4 IRadAn=           5 IRanWt=          -1 IRanGd=           0 AccXCQ= 0.00D+00.
 Generated NRdTot=       0 NPtTot=           0 NUsed=           0 NTot=          32
 NSgBfM=   436   436   436   436   436 MxSgAt=    40 MxSgA2=    40.
 Leave Link  302 at Fri Aug 15 18:32:57 2025, MaxMem=  1342177280 cpu:              10.8 elap:               0.7
 (Enter /opt/bwhpc/common/chem/gaussian/g16.C.01/x86_64-Intel-avx2-source/g16/l303.exe)
 DipDrv:  MaxL=1.
 Leave Link  303 at Fri Aug 15 18:32:57 2025, MaxMem=  1342177280 cpu:               1.5 elap:               0.1
 (Enter /opt/bwhpc/common/chem/gaussian/g16.C.01/x86_64-Intel-avx2-source/g16/l401.exe)
 ExpMin= 1.22D-01 ExpMax= 1.17D+04 ExpMxC= 4.01D+02 IAcc=3 IRadAn=         5 AccDes= 0.00D+00
 Harris functional with IExCor=  402 and IRadAn=       5 diagonalized for initial guess.
 HarFok:  IExCor=  402 AccDes= 0.00D+00 IRadAn=         5 IDoV= 1 UseB2=F ITyADJ=14
 ICtDFT=  3500011 ScaDFX=  1.000000  1.000000  1.000000  1.000000
 FoFCou: FMM=F IPFlag=           0 FMFlag=      100000 FMFlg1=           0
         NFxFlg=           0 DoJE=T BraDBF=F KetDBF=T FulRan=T
         wScrn=  0.000000 ICntrl=       500 IOpCl=  0 I1Cent=   200000004 NGrid=           0
         NMat0=    1 NMatS0=      1 NMatT0=    0 NMatD0=    1 NMtDS0=    0 NMtDT0=    0
 Petite list used in FoFCou.
 Harris En= -1089.62547678154    
 JPrj=0 DoOrth=F DoCkMO=F.
 Leave Link  401 at Fri Aug 15 18:32:59 2025, MaxMem=  1342177280 cpu:              31.6 elap:               2.0
 (Enter /opt/bwhpc/common/chem/gaussian/g16.C.01/x86_64-Intel-avx2-source/g16/l502.exe)
 Integral symmetry usage will be decided dynamically.
 Closed shell SCF:
 Using DIIS extrapolation, IDIIS=  1040.
 NGot=  1342177280 LenX=  1341759434 LenY=  1341556484
 Requested convergence on RMS density matrix=1.00D-08 within 128 cycles.
 Requested convergence on MAX density matrix=1.00D-06.
 Requested convergence on             energy=1.00D-06.
 No special actions if energy rises.
 Fock matrices will be formed incrementally for  20 cycles.
 Integral accuracy reduced to 1.0D-05 until final iterations.

 Cycle   1  Pass 0  IDiag  1:
 FoFJK:  IHMeth= 1 ICntrl=       0 DoSepK=F KAlg= 0 I1Cent=           0 FoldK=F
 IRaf= 720000000 NMat=       1 IRICut=       1 DoRegI=T DoRafI=F ISym2E= 0 IDoP0=0 IntGTp=1.
 FoFCou: FMM=F IPFlag=           0 FMFlag=      100000 FMFlg1=           0
         NFxFlg=           0 DoJE=F BraDBF=F KetDBF=F FulRan=T
         wScrn=  0.000000 ICntrl=         0 IOpCl=  0 I1Cent=           0 NGrid=           0
         NMat0=    1 NMatS0=      1 NMatT0=    0 NMatD0=    1 NMtDS0=    0 NMtDT0=    0
 Symmetry not used in FoFCou.
 E= -1089.15642127404    
 DIIS: error= 5.30D-02 at cycle   1 NSaved=   1.
 NSaved= 1 IEnMin= 1 EnMin= -1089.15642127404     IErMin= 1 ErrMin= 5.30D-02
 ErrMax= 5.30D-02  0.00D+00 EMaxC= 1.00D-01 BMatC= 5.01D-01 BMatP= 5.01D-01
 IDIUse=3 WtCom= 4.70D-01 WtEn= 5.30D-01
 Coeff-Com:  0.100D+01
 Coeff-En:   0.100D+01
 Coeff:      0.100D+01
 Gap=     0.087 Goal=   None    Shift=    0.000
 GapD=    0.087 DampG=0.500 DampE=0.500 DampFc=0.2500 IDamp=-1.
 Damping current iteration by 2.50D-01
 RMSDP=7.32D-03 MaxDP=2.51D-01              OVMax= 3.41D-01

 Cycle   2  Pass 0  IDiag  1:
 RMSU=  1.57D-03    CP:  9.51D-01
 E= -1089.33511659689     Delta-E=       -0.178695322853 Rises=F Damp=T
 DIIS: error= 1.60D-02 at cycle   2 NSaved=   2.
 NSaved= 2 IEnMin= 2 EnMin= -1089.33511659689     IErMin= 2 ErrMin= 1.60D-02
 ErrMax= 1.60D-02  0.00D+00 EMaxC= 1.00D-01 BMatC= 1.11D-01 BMatP= 5.01D-01
 IDIUse=3 WtCom= 8.40D-01 WtEn= 1.60D-01
 Coeff-Com: -0.641D+00 0.164D+01
 Coeff-En:   0.000D+00 0.100D+01
 Coeff:     -0.538D+00 0.154D+01
 Gap=     0.130 Goal=   None    Shift=    0.000
 RMSDP=4.09D-03 MaxDP=1.44D-01 DE=-1.79D-01 OVMax= 3.55D-01

 Cycle   3  Pass 0  IDiag  1:
 RMSU=  1.76D-03    CP:  8.32D-01  2.83D+00
 E= -1089.62365880328     Delta-E=       -0.288542206389 Rises=F Damp=F
 DIIS: error= 1.47D-02 at cycle   3 NSaved=   3.
 NSaved= 3 IEnMin= 3 EnMin= -1089.62365880328     IErMin= 3 ErrMin= 1.47D-02
 ErrMax= 1.47D-02  0.00D+00 EMaxC= 1.00D-01 BMatC= 3.64D-02 BMatP= 1.11D-01
 IDIUse=3 WtCom= 8.53D-01 WtEn= 1.47D-01
 Coeff-Com: -0.357D+00 0.836D+00 0.521D+00
 Coeff-En:   0.000D+00 0.000D+00 0.100D+01
 Coeff:     -0.304D+00 0.713D+00 0.591D+00
 Gap=     0.104 Goal=   None    Shift=    0.000
 RMSDP=8.03D-04 MaxDP=5.85D-02 DE=-2.89D-01 OVMax= 9.92D-02

 Cycle   4  Pass 0  IDiag  1:
 RMSU=  5.54D-04    CP:  8.45D-01  2.71D+00  7.21D-01
 E= -1089.65039930952     Delta-E=       -0.026740506236 Rises=F Damp=F
 DIIS: error= 6.19D-03 at cycle   4 NSaved=   4.
 NSaved= 4 IEnMin= 4 EnMin= -1089.65039930952     IErMin= 4 ErrMin= 6.19D-03
 ErrMax= 6.19D-03  0.00D+00 EMaxC= 1.00D-01 BMatC= 1.20D-02 BMatP= 3.64D-02
 IDIUse=3 WtCom= 9.38D-01 WtEn= 6.19D-02
 Coeff-Com: -0.109D+00 0.273D+00 0.370D+00 0.467D+00
 Coeff-En:   0.000D+00 0.000D+00 0.254D+00 0.746D+00
 Coeff:     -0.103D+00 0.256D+00 0.363D+00 0.484D+00
 Gap=     0.099 Goal=   None    Shift=    0.000
 RMSDP=3.40D-04 MaxDP=2.37D-02 DE=-2.67D-02 OVMax= 4.78D-02

 Cycle   5  Pass 0  IDiag  1:
 RMSU=  2.02D-04    CP:  8.44D-01  2.67D+00  8.06D-01  6.00D-01
 E= -1089.65991638534     Delta-E=       -0.009517075823 Rises=F Damp=F
 DIIS: error= 4.24D-03 at cycle   5 NSaved=   5.
 NSaved= 5 IEnMin= 5 EnMin= -1089.65991638534     IErMin= 5 ErrMin= 4.24D-03
 ErrMax= 4.24D-03  0.00D+00 EMaxC= 1.00D-01 BMatC= 2.72D-03 BMatP= 1.20D-02
 IDIUse=3 WtCom= 9.58D-01 WtEn= 4.24D-02
 Coeff-Com: -0.184D-01 0.578D-01 0.190D+00 0.368D+00 0.403D+00
 Coeff-En:   0.000D+00 0.000D+00 0.000D+00 0.174D+00 0.826D+00
 Coeff:     -0.176D-01 0.553D-01 0.182D+00 0.360D+00 0.421D+00
 Gap=     0.099 Goal=   None    Shift=    0.000
 RMSDP=1.47D-04 MaxDP=1.39D-02 DE=-9.52D-03 OVMax= 3.08D-02

 Cycle   6  Pass 0  IDiag  1:
 RMSU=  9.26D-05    CP:  8.44D-01  2.68D+00  7.99D-01  6.59D-01  4.64D-01
 E= -1089.66200065214     Delta-E=       -0.002084266803 Rises=F Damp=F
 DIIS: error= 1.67D-03 at cycle   6 NSaved=   6.
 NSaved= 6 IEnMin= 6 EnMin= -1089.66200065214     IErMin= 6 ErrMin= 1.67D-03
 ErrMax= 1.67D-03  0.00D+00 EMaxC= 1.00D-01 BMatC= 4.05D-04 BMatP= 2.72D-03
 IDIUse=3 WtCom= 9.83D-01 WtEn= 1.67D-02
 Coeff-Com: -0.270D-03 0.795D-02 0.811D-01 0.185D+00 0.308D+00 0.419D+00
 Coeff-En:   0.000D+00 0.000D+00 0.000D+00 0.000D+00 0.140D+00 0.860D+00
 Coeff:     -0.266D-03 0.782D-02 0.797D-01 0.181D+00 0.305D+00 0.426D+00
 Gap=     0.099 Goal=   None    Shift=    0.000
 RMSDP=5.15D-05 MaxDP=5.40D-03 DE=-2.08D-03 OVMax= 1.05D-02

 Cycle   7  Pass 0  IDiag  1:
 RMSU=  3.72D-05    CP:  8.44D-01  2.68D+00  7.95D-01  6.60D-01  5.40D-01
                    CP:  6.69D-01
 E= -1089.66230402318     Delta-E=       -0.000303371039 Rises=F Damp=F
 DIIS: error= 2.54D-04 at cycle   7 NSaved=   7.
 NSaved= 7 IEnMin= 7 EnMin= -1089.66230402318     IErMin= 7 ErrMin= 2.54D-04
 ErrMax= 2.54D-04  0.00D+00 EMaxC= 1.00D-01 BMatC= 3.25D-05 BMatP= 4.05D-04
 IDIUse=3 WtCom= 9.97D-01 WtEn= 2.54D-03
 Coeff-Com:  0.236D-02-0.303D-02 0.221D-01 0.555D-01 0.133D+00 0.278D+00
 Coeff-Com:  0.512D+00
 Coeff-En:   0.000D+00 0.000D+00 0.000D+00 0.000D+00 0.000D+00 0.663D-01
 Coeff-En:   0.934D+00
 Coeff:      0.236D-02-0.303D-02 0.220D-01 0.554D-01 0.133D+00 0.277D+00
 Coeff:      0.513D+00
 Gap=     0.100 Goal=   None    Shift=    0.000
 RMSDP=2.03D-05 MaxDP=8.40D-04 DE=-3.03D-04 OVMax= 3.41D-03

 Cycle   8  Pass 0  IDiag  1:
 RMSU=  1.37D-05    CP:  8.44D-01  2.68D+00  7.98D-01  6.53D-01  5.50D-01
                    CP:  6.96D-01  6.71D-01
 E= -1089.66233738492     Delta-E=       -0.000033361739 Rises=F Damp=F
 DIIS: error= 9.24D-05 at cycle   8 NSaved=   8.
 NSaved= 8 IEnMin= 8 EnMin= -1089.66233738492     IErMin= 8 ErrMin= 9.24D-05
 ErrMax= 9.24D-05  0.00D+00 EMaxC= 1.00D-01 BMatC= 5.57D-06 BMatP= 3.25D-05
 IDIUse=1 WtCom= 1.00D+00 WtEn= 0.00D+00
 Coeff-Com:  0.216D-02-0.411D-02 0.452D-02 0.144D-01 0.544D-01 0.139D+00
 Coeff-Com:  0.354D+00 0.436D+00
 Coeff:      0.216D-02-0.411D-02 0.452D-02 0.144D-01 0.544D-01 0.139D+00
 Coeff:      0.354D+00 0.436D+00
 Gap=     0.100 Goal=   None    Shift=    0.000
 RMSDP=7.10D-06 MaxDP=3.06D-04 DE=-3.34D-05 OVMax= 1.02D-03

 Initial convergence to 1.0D-05 achieved.  Increase integral accuracy.
 Cycle   9  Pass 1  IDiag  1:
 E= -1089.66228262752     Delta-E=        0.000054757400 Rises=F Damp=F
 DIIS: error= 2.17D-04 at cycle   1 NSaved=   1.
 NSaved= 1 IEnMin= 1 EnMin= -1089.66228262752     IErMin= 1 ErrMin= 2.17D-04
 ErrMax= 2.17D-04  0.00D+00 EMaxC= 1.00D-01 BMatC= 1.59D-05 BMatP= 1.59D-05
 IDIUse=3 WtCom= 9.98D-01 WtEn= 2.17D-03
 Coeff-Com:  0.100D+01
 Coeff-En:   0.100D+01
 Coeff:      0.100D+01
 Gap=     0.100 Goal=   None    Shift=    0.000
 RMSDP=7.10D-06 MaxDP=3.06D-04 DE= 5.48D-05 OVMax= 6.60D-04

 Cycle  10  Pass 1  IDiag  1:
 RMSU=  4.22D-04    CP:  9.99D-01
 E= -1089.66229367279     Delta-E=       -0.000011045265 Rises=F Damp=F
 DIIS: error= 5.03D-05 at cycle   2 NSaved=   2.
 NSaved= 2 IEnMin= 2 EnMin= -1089.66229367279     IErMin= 2 ErrMin= 5.03D-05
 ErrMax= 5.03D-05  0.00D+00 EMaxC= 1.00D-01 BMatC= 1.59D-06 BMatP= 1.59D-05
 IDIUse=1 WtCom= 1.00D+00 WtEn= 0.00D+00
 Coeff-Com:  0.116D+00 0.884D+00
 Coeff:      0.116D+00 0.884D+00
 Gap=     0.100 Goal=   None    Shift=    0.000
 RMSDP=1.07D-05 MaxDP=4.02D-04 DE=-1.10D-05 OVMax= 1.63D-03

 Cycle  11  Pass 1  IDiag  1:
 RMSU=  1.02D-05    CP:  9.99D-01  1.01D+00
 E= -1089.66228741231     Delta-E=        0.000006260480 Rises=F Damp=F
 DIIS: error= 1.10D-04 at cycle   3 NSaved=   3.
 NSaved= 3 IEnMin= 2 EnMin= -1089.66229367279     IErMin= 2 ErrMin= 5.03D-05
 ErrMax= 1.10D-04  0.00D+00 EMaxC= 1.00D-01 BMatC= 6.67D-06 BMatP= 1.59D-06
 IDIUse=3 WtCom= 4.88D-01 WtEn= 5.12D-01
 Coeff-Com: -0.327D-02 0.674D+00 0.329D+00
 Coeff-En:   0.000D+00 0.746D+00 0.254D+00
 Coeff:     -0.160D-02 0.711D+00 0.291D+00
 Gap=     0.100 Goal=   None    Shift=    0.000
 RMSDP=6.16D-06 MaxDP=2.55D-04 DE= 6.26D-06 OVMax= 1.07D-03

 Cycle  12  Pass 1  IDiag  1:
 RMSU=  9.68D-07    CP:  9.99D-01  1.01D+00  4.09D-01
 E= -1089.66229542511     Delta-E=       -0.000008012808 Rises=F Damp=F
 DIIS: error= 1.34D-05 at cycle   4 NSaved=   4.
 NSaved= 4 IEnMin= 4 EnMin= -1089.66229542511     IErMin= 4 ErrMin= 1.34D-05
 ErrMax= 1.34D-05  0.00D+00 EMaxC= 1.00D-01 BMatC= 1.33D-07 BMatP= 1.59D-06
 IDIUse=1 WtCom= 1.00D+00 WtEn= 0.00D+00
 Coeff-Com: -0.322D-02 0.440D+00 0.165D+00 0.398D+00
 Coeff:     -0.322D-02 0.440D+00 0.165D+00 0.398D+00
 Gap=     0.100 Goal=   None    Shift=    0.000
 RMSDP=9.60D-07 MaxDP=5.53D-05 DE=-8.01D-06 OVMax= 1.19D-04

 Cycle  13  Pass 1  IDiag  1:
 RMSU=  3.92D-07    CP:  9.99D-01  1.01D+00  3.29D-01  6.89D-01
 E= -1089.66229556947     Delta-E=       -0.000000144350 Rises=F Damp=F
 DIIS: error= 4.32D-06 at cycle   5 NSaved=   5.
 NSaved= 5 IEnMin= 5 EnMin= -1089.66229556947     IErMin= 5 ErrMin= 4.32D-06
 ErrMax= 4.32D-06  0.00D+00 EMaxC= 1.00D-01 BMatC= 2.70D-09 BMatP= 1.33D-07
 IDIUse=1 WtCom= 1.00D+00 WtEn= 0.00D+00
 Coeff-Com: -0.210D-02 0.275D+00 0.995D-01 0.281D+00 0.347D+00
 Coeff:     -0.210D-02 0.275D+00 0.995D-01 0.281D+00 0.347D+00
 Gap=     0.100 Goal=   None    Shift=    0.000
 RMSDP=1.30D-07 MaxDP=1.40D-05 DE=-1.44D-07 OVMax= 2.82D-05

 Cycle  14  Pass 1  IDiag  1:
 RMSU=  1.18D-07    CP:  9.99D-01  1.01D+00  3.31D-01  7.01D-01  8.76D-01
 E= -1089.66229557152     Delta-E=       -0.000000002059 Rises=F Damp=F
 DIIS: error= 1.02D-06 at cycle   6 NSaved=   6.
 NSaved= 6 IEnMin= 6 EnMin= -1089.66229557152     IErMin= 6 ErrMin= 1.02D-06
 ErrMax= 1.02D-06  0.00D+00 EMaxC= 1.00D-01 BMatC= 2.03D-10 BMatP= 2.70D-09
 IDIUse=1 WtCom= 1.00D+00 WtEn= 0.00D+00
 Coeff-Com: -0.976D-03 0.124D+00 0.440D-01 0.135D+00 0.232D+00 0.466D+00
 Coeff:     -0.976D-03 0.124D+00 0.440D-01 0.135D+00 0.232D+00 0.466D+00
 Gap=     0.100 Goal=   None    Shift=    0.000
 RMSDP=4.06D-08 MaxDP=3.14D-06 DE=-2.06D-09 OVMax= 6.23D-06

 Cycle  15  Pass 1  IDiag  1:
 RMSU=  3.19D-08    CP:  9.99D-01  1.01D+00  3.31D-01  7.11D-01  8.86D-01
                    CP:  8.11D-01
 E= -1089.66229557167     Delta-E=       -0.000000000141 Rises=F Damp=F
 DIIS: error= 2.38D-07 at cycle   7 NSaved=   7.
 NSaved= 7 IEnMin= 7 EnMin= -1089.66229557167     IErMin= 7 ErrMin= 2.38D-07
 ErrMax= 2.38D-07  0.00D+00 EMaxC= 1.00D-01 BMatC= 1.96D-11 BMatP= 2.03D-10
 IDIUse=1 WtCom= 1.00D+00 WtEn= 0.00D+00
 Coeff-Com: -0.164D-03 0.197D-01 0.646D-02 0.258D-01 0.637D-01 0.263D+00
 Coeff-Com:  0.622D+00
 Coeff:     -0.164D-03 0.197D-01 0.646D-02 0.258D-01 0.637D-01 0.263D+00
 Coeff:      0.622D+00
 Gap=     0.100 Goal=   None    Shift=    0.000
 RMSDP=1.69D-08 MaxDP=7.81D-07 DE=-1.41D-10 OVMax= 2.04D-06

 Cycle  16  Pass 1  IDiag  1:
 RMSU=  1.17D-08    CP:  9.99D-01  1.01D+00  3.31D-01  7.12D-01  8.97D-01
                    CP:  8.42D-01  6.87D-01
 E= -1089.66229557163     Delta-E=        0.000000000035 Rises=F Damp=F
 DIIS: error= 1.02D-07 at cycle   8 NSaved=   8.
 NSaved= 8 IEnMin= 7 EnMin= -1089.66229557167     IErMin= 8 ErrMin= 1.02D-07
 ErrMax= 1.02D-07  0.00D+00 EMaxC= 1.00D-01 BMatC= 4.93D-12 BMatP= 1.96D-11
 IDIUse=1 WtCom= 1.00D+00 WtEn= 0.00D+00
 Coeff-Com:  0.190D-04-0.311D-02-0.144D-02-0.722D-03 0.938D-02 0.102D+00
 Coeff-Com:  0.403D+00 0.491D+00
 Coeff:      0.190D-04-0.311D-02-0.144D-02-0.722D-03 0.938D-02 0.102D+00
 Coeff:      0.403D+00 0.491D+00
 Gap=     0.100 Goal=   None    Shift=    0.000
 RMSDP=7.22D-09 MaxDP=3.12D-07 DE= 3.46D-11 OVMax= 1.12D-06

 SCF Done:  E(RB3LYP) =  -1089.66229557     A.U. after   16 cycles
            NFock= 16  Conv=0.72D-08     -V/T= 2.0064
 KE= 1.082693999203D+03 PE=-6.348110518704D+03 EE= 2.269245020751D+03
 Leave Link  502 at Fri Aug 15 18:34:03 2025, MaxMem=  1342177280 cpu:            1016.1 elap:              63.7
 (Enter /opt/bwhpc/common/chem/gaussian/g16.C.01/x86_64-Intel-avx2-source/g16/l801.exe)
 DoSCS=F DFT=T ScalE2(SS,OS)=  1.000000  1.000000
 Range of M.O.s used for correlation:     1   425
 NBasis=   425 NAE=    86 NBE=    86 NFC=     0 NFV=     0
 NROrb=    425 NOA=    86 NOB=    86 NVA=   339 NVB=   339

 **** Warning!!: The largest alpha MO coefficient is  0.19162186D+02


 **** Warning!!: The smallest alpha delta epsilon is  0.99890940D-01

 Leave Link  801 at Fri Aug 15 18:34:03 2025, MaxMem=  1342177280 cpu:               0.6 elap:               0.0
 (Enter /opt/bwhpc/common/chem/gaussian/g16.C.01/x86_64-Intel-avx2-source/g16/l1002.exe)
 Minotr:  Closed shell wavefunction.
          Direct CPHF calculation.
          Differentiating once with respect to electric field.
                with respect to dipole field.
          Electric field/nuclear overlap derivatives assumed to be zero.
          Requested convergence is 1.0D-08 RMS, and 1.0D-07 maximum.
          Secondary convergence is 1.0D-12 RMS, and 1.0D-12 maximum.
          NewPWx=F KeepS1=T KeepF1=T KeepIn=T MapXYZ=F SortEE=F KeepMc=T.
        12194 words used for storage of precomputed grid.
 Two-electron integral symmetry used by symmetrizing perturbed Fock matrices.
          MDV=    1342177280 using IRadAn=       1.
          Solving linear equations simultaneously, MaxMat=     384.
          There are     3 degrees of freedom in the 1st order CPHF.  IDoFFX=0 NUNeed=     3.
      3 vectors produced by pass  0 Test12= 9.72D-13 3.33D-08 XBig12= 1.91D+03 3.74D+01.
 AX will form     3 AO Fock derivatives at one time.
 FoFJK:  IHMeth= 1 ICntrl=       0 DoSepK=F KAlg= 0 I1Cent=           0 FoldK=F
 IRaf= 690000000 NMat=       3 IRICut=       1 DoRegI=T DoRafI=F ISym2E=-1 IDoP0=0 IntGTp=1.
 FoFCou: FMM=F IPFlag=           0 FMFlag=      100000 FMFlg1=           0
         NFxFlg=           0 DoJE=F BraDBF=F KetDBF=F FulRan=T
         wScrn=  0.000000 ICntrl=         0 IOpCl=  0 I1Cent=           0 NGrid=           0
         NMat0=    3 NMatS0=      3 NMatT0=    0 NMatD0=    3 NMtDS0=    0 NMtDT0=    0
 Petite list used in FoFCou.
      3 vectors produced by pass  1 Test12= 9.72D-13 3.33D-08 XBig12= 5.24D+02 6.85D+00.
      3 vectors produced by pass  2 Test12= 9.72D-13 3.33D-08 XBig12= 1.75D+02 4.34D+00.
      3 vectors produced by pass  3 Test12= 9.72D-13 3.33D-08 XBig12= 1.12D+02 2.87D+00.
      3 vectors produced by pass  4 Test12= 9.72D-13 3.33D-08 XBig12= 3.19D+01 1.21D+00.
      3 vectors produced by pass  5 Test12= 9.72D-13 3.33D-08 XBig12= 9.97D+00 6.27D-01.
      3 vectors produced by pass  6 Test12= 9.72D-13 3.33D-08 XBig12= 3.75D+00 3.53D-01.
      3 vectors produced by pass  7 Test12= 9.72D-13 3.33D-08 XBig12= 9.66D-01 2.72D-01.
      3 vectors produced by pass  8 Test12= 9.72D-13 3.33D-08 XBig12= 1.57D-01 9.69D-02.
      3 vectors produced by pass  9 Test12= 9.72D-13 3.33D-08 XBig12= 5.92D-02 4.23D-02.
      3 vectors produced by pass 10 Test12= 9.72D-13 3.33D-08 XBig12= 1.05D-02 1.71D-02.
      3 vectors produced by pass 11 Test12= 9.72D-13 3.33D-08 XBig12= 3.42D-03 1.36D-02.
      3 vectors produced by pass 12 Test12= 9.72D-13 3.33D-08 XBig12= 7.17D-04 3.76D-03.
      3 vectors produced by pass 13 Test12= 9.72D-13 3.33D-08 XBig12= 1.21D-04 2.49D-03.
      3 vectors produced by pass 14 Test12= 9.72D-13 3.33D-08 XBig12= 3.52D-05 1.14D-03.
      3 vectors produced by pass 15 Test12= 9.72D-13 3.33D-08 XBig12= 5.61D-06 5.60D-04.
      3 vectors produced by pass 16 Test12= 9.72D-13 3.33D-08 XBig12= 6.85D-07 1.70D-04.
      3 vectors produced by pass 17 Test12= 9.72D-13 3.33D-08 XBig12= 1.26D-07 6.94D-05.
      3 vectors produced by pass 18 Test12= 9.72D-13 3.33D-08 XBig12= 2.15D-08 2.57D-05.
      3 vectors produced by pass 19 Test12= 9.72D-13 3.33D-08 XBig12= 2.42D-09 9.62D-06.
      3 vectors produced by pass 20 Test12= 9.72D-13 3.33D-08 XBig12= 1.46D-10 1.59D-06.
      2 vectors produced by pass 21 Test12= 9.72D-13 3.33D-08 XBig12= 7.94D-12 2.78D-07.
      1 vectors produced by pass 22 Test12= 9.72D-13 3.33D-08 XBig12= 2.93D-13 6.62D-08.
 InvSVY:  IOpt=1 It=  1 EMax= 9.94D-15
 Solved reduced A of dimension    66 with     3 vectors.
 FullF1:  Do perturbations      1 to       3.
 SCF Polarizability for W=    0.000000:
                1             2             3 
      1  0.661731D+03
      2 -0.294129D+02  0.270168D+03
      3  0.868549D+00 -0.146970D+01  0.901568D+02
 Isotropic polarizability for W=    0.000000      340.69 Bohr**3.
 SCF Static Hyperpolarizability:
 K=  1 block:
                1 
      1 -0.137508D+05
 K=  2 block:
                1             2 
      1 -0.131274D+04
      2 -0.723802D+01  0.587302D+02
 K=  3 block:
                1             2             3 
      1  0.211311D+03
      2  0.274355D+01 -0.147791D+02
      3  0.982345D+02 -0.663904D+01  0.659737D+02
 End of Minotr F.D. properties file   721 does not exist.
 End of Minotr F.D. properties file   722 does not exist.
 End of Minotr F.D. properties file   788 does not exist.
 Leave Link 1002 at Fri Aug 15 18:36:53 2025, MaxMem=  1342177280 cpu:            2710.9 elap:             170.2
 (Enter /opt/bwhpc/common/chem/gaussian/g16.C.01/x86_64-Intel-avx2-source/g16/l601.exe)
 Copying SCF densities to generalized density rwf, IOpCl= 0 IROHF=0.

 **********************************************************************

            Population analysis using the SCF Density.

 **********************************************************************

 Orbital symmetries:
       Occupied  (A) (A) (A) (A) (A) (A) (A) (A) (A) (A) (A) (A)
                 (A) (A) (A) (A) (A) (A) (A) (A) (A) (A) (A) (A)
                 (A) (A) (A) (A) (A) (A) (A) (A) (A) (A) (A) (A)
                 (A) (A) (A) (A) (A) (A) (A) (A) (A) (A) (A) (A)
                 (A) (A) (A) (A) (A) (A) (A) (A) (A) (A) (A) (A)
                 (A) (A) (A) (A) (A) (A) (A) (A) (A) (A) (A) (A)
                 (A) (A) (A) (A) (A) (A) (A) (A) (A) (A) (A) (A)
                 (A) (A)
       Virtual   (A) (A) (A) (A) (A) (A) (A) (A) (A) (A) (A) (A)
                 (A) (A) (A) (A) (A) (A) (A) (A) (A) (A) (A) (A)
                 (A) (A) (A) (A) (A) (A) (A) (A) (A) (A) (A) (A)
                 (A) (A) (A) (A) (A) (A) (A) (A) (A) (A) (A) (A)
                 (A) (A) (A) (A) (A) (A) (A) (A) (A) (A) (A) (A)
                 (A) (A) (A) (A) (A) (A) (A) (A) (A) (A) (A) (A)
                 (A) (A) (A) (A) (A) (A) (A) (A) (A) (A) (A) (A)
                 (A) (A) (A) (A) (A) (A) (A) (A) (A) (A) (A) (A)
                 (A) (A) (A) (A) (A) (A) (A) (A) (A) (A) (A) (A)
                 (A) (A) (A) (A) (A) (A) (A) (A) (A) (A) (A) (A)
                 (A) (A) (A) (A) (A) (A) (A) (A) (A) (A) (A) (A)
                 (A) (A) (A) (A) (A) (A) (A) (A) (A) (A) (A) (A)
                 (A) (A) (A) (A) (A) (A) (A) (A) (A) (A) (A) (A)
                 (A) (A) (A) (A) (A) (A) (A) (A) (A) (A) (A) (A)
                 (A) (A) (A) (A) (A) (A) (A) (A) (A) (A) (A) (A)
                 (A) (A) (A) (A) (A) (A) (A) (A) (A) (A) (A) (A)
                 (A) (A) (A) (A) (A) (A) (A) (A) (A) (A) (A) (A)
                 (A) (A) (A) (A) (A) (A) (A) (A) (A) (A) (A) (A)
                 (A) (A) (A) (A) (A) (A) (A) (A) (A) (A) (A) (A)
                 (A) (A) (A) (A) (A) (A) (A) (A) (A) (A) (A) (A)
                 (A) (A) (A) (A) (A) (A) (A) (A) (A) (A) (A) (A)
                 (A) (A) (A) (A) (A) (A) (A) (A) (A) (A) (A) (A)
                 (A) (A) (A) (A) (A) (A) (A) (A) (A) (A) (A) (A)
                 (A) (A) (A) (A) (A) (A) (A) (A) (A) (A) (A) (A)
                 (A) (A) (A) (A) (A) (A) (A) (A) (A) (A) (A) (A)
                 (A) (A) (A) (A) (A) (A) (A) (A) (A) (A) (A) (A)
                 (A) (A) (A) (A) (A) (A) (A) (A) (A) (A) (A) (A)
                 (A) (A) (A) (A) (A) (A) (A) (A) (A) (A) (A) (A)
                 (A) (A) (A)
 The electronic state is 1-A.
 Alpha  occ. eigenvalues --  -19.19102 -19.15160 -19.15120 -14.54536 -10.26142
 Alpha  occ. eigenvalues --  -10.26093 -10.23580 -10.22484 -10.22114 -10.21965
 Alpha  occ. eigenvalues --  -10.21928 -10.21557 -10.21427 -10.21274 -10.21201
 Alpha  occ. eigenvalues --  -10.20918 -10.20838 -10.20672 -10.20631 -10.20570
 Alpha  occ. eigenvalues --  -10.20518 -10.20466 -10.20335 -10.20313 -10.19530
 Alpha  occ. eigenvalues --   -1.21424  -1.09063  -1.03918  -0.90718  -0.87337
 Alpha  occ. eigenvalues --   -0.84776  -0.84029  -0.81584  -0.79797  -0.77845
 Alpha  occ. eigenvalues --   -0.76137  -0.74854  -0.73892  -0.70492  -0.68732
 Alpha  occ. eigenvalues --   -0.64718  -0.63984  -0.63290  -0.61930  -0.59357
 Alpha  occ. eigenvalues --   -0.57640  -0.55073  -0.54157  -0.53913  -0.53069
 Alpha  occ. eigenvalues --   -0.52139  -0.51913  -0.51382  -0.50763  -0.48966
 Alpha  occ. eigenvalues --   -0.48375  -0.48146  -0.46807  -0.45859  -0.45175
 Alpha  occ. eigenvalues --   -0.44400  -0.43163  -0.42702  -0.42117  -0.41266
 Alpha  occ. eigenvalues --   -0.41086  -0.40525  -0.39889  -0.38769  -0.38568
 Alpha  occ. eigenvalues --   -0.36914  -0.36836  -0.35866  -0.35197  -0.34345
 Alpha  occ. eigenvalues --   -0.33491  -0.33115  -0.30353  -0.29329  -0.29281
 Alpha  occ. eigenvalues --   -0.28696  -0.27468  -0.26940  -0.24906  -0.23953
 Alpha  occ. eigenvalues --   -0.19969
 Alpha virt. eigenvalues --   -0.09980  -0.06180  -0.04517  -0.02520  -0.01307
 Alpha virt. eigenvalues --    0.01785   0.02368   0.04753   0.05684   0.05982
 Alpha virt. eigenvalues --    0.06631   0.07157   0.07676   0.08591   0.09273
 Alpha virt. eigenvalues --    0.09736   0.10009   0.10904   0.11735   0.11942
 Alpha virt. eigenvalues --    0.12406   0.14347   0.14917   0.16717   0.17430
 Alpha virt. eigenvalues --    0.18967   0.20056   0.21279   0.22087   0.22551
 Alpha virt. eigenvalues --    0.23336   0.23973   0.24819   0.25101   0.27799
 Alpha virt. eigenvalues --    0.28193   0.28892   0.29176   0.29381   0.30318
 Alpha virt. eigenvalues --    0.31600   0.33573   0.34027   0.37766   0.38726
 Alpha virt. eigenvalues --    0.39587   0.40543   0.40923   0.41704   0.42696
 Alpha virt. eigenvalues --    0.42792   0.43140   0.43475   0.44365   0.44592
 Alpha virt. eigenvalues --    0.44785   0.45214   0.45820   0.45982   0.46301
 Alpha virt. eigenvalues --    0.46658   0.47302   0.48087   0.48555   0.48858
 Alpha virt. eigenvalues --    0.49770   0.50234   0.50539   0.50841   0.51179
 Alpha virt. eigenvalues --    0.51482   0.51960   0.52214   0.52673   0.53028
 Alpha virt. eigenvalues --    0.53652   0.53788   0.54086   0.54722   0.55540
 Alpha virt. eigenvalues --    0.56454   0.57189   0.57336   0.57670   0.58196
 Alpha virt. eigenvalues --    0.59601   0.59760   0.60212   0.61040   0.61626
 Alpha virt. eigenvalues --    0.62253   0.63741   0.63878   0.65190   0.65334
 Alpha virt. eigenvalues --    0.66017   0.66545   0.67332   0.68156   0.69078
 Alpha virt. eigenvalues --    0.69372   0.69619   0.70608   0.71017   0.71038
 Alpha virt. eigenvalues --    0.71778   0.73493   0.73789   0.74378   0.77249
 Alpha virt. eigenvalues --    0.77739   0.79560   0.82101   0.82298   0.82860
 Alpha virt. eigenvalues --    0.84200   0.84305   0.85031   0.85773   0.86482
 Alpha virt. eigenvalues --    0.86866   0.87623   0.88046   0.88771   0.89582
 Alpha virt. eigenvalues --    0.90453   0.91010   0.91215   0.92155   0.92603
 Alpha virt. eigenvalues --    0.92894   0.93113   0.93475   0.93903   0.95317
 Alpha virt. eigenvalues --    0.95562   0.96004   0.96658   0.97901   0.98491
 Alpha virt. eigenvalues --    0.98929   1.00022   1.00175   1.00671   1.01426
 Alpha virt. eigenvalues --    1.01892   1.02073   1.02951   1.04133   1.05266
 Alpha virt. eigenvalues --    1.05421   1.05724   1.06515   1.07269   1.08553
 Alpha virt. eigenvalues --    1.08564   1.09408   1.11127   1.12877   1.14437
 Alpha virt. eigenvalues --    1.14512   1.15348   1.15595   1.17312   1.19116
 Alpha virt. eigenvalues --    1.20841   1.22196   1.23718   1.27041   1.32173
 Alpha virt. eigenvalues --    1.32619   1.33151   1.34111   1.34319   1.34807
 Alpha virt. eigenvalues --    1.36127   1.36428   1.36641   1.37442   1.37690
 Alpha virt. eigenvalues --    1.38718   1.38848   1.41071   1.41799   1.42352
 Alpha virt. eigenvalues --    1.42564   1.43398   1.44916   1.45242   1.46400
 Alpha virt. eigenvalues --    1.47675   1.48136   1.48962   1.50112   1.50528
 Alpha virt. eigenvalues --    1.51029   1.52257   1.52910   1.53271   1.55345
 Alpha virt. eigenvalues --    1.55484   1.56084   1.56422   1.56875   1.57130
 Alpha virt. eigenvalues --    1.58376   1.59089   1.59309   1.59865   1.60544
 Alpha virt. eigenvalues --    1.61030   1.61851   1.62281   1.62582   1.62994
 Alpha virt. eigenvalues --    1.63502   1.64403   1.64549   1.65388   1.65726
 Alpha virt. eigenvalues --    1.65855   1.67173   1.68060   1.68396   1.69181
 Alpha virt. eigenvalues --    1.70719   1.72190   1.73040   1.73746   1.74248
 Alpha virt. eigenvalues --    1.74738   1.75825   1.77182   1.77752   1.78585
 Alpha virt. eigenvalues --    1.78795   1.79858   1.79995   1.80714   1.81999
 Alpha virt. eigenvalues --    1.82629   1.83026   1.84106   1.84570   1.84821
 Alpha virt. eigenvalues --    1.86420   1.87439   1.88779   1.89315   1.90163
 Alpha virt. eigenvalues --    1.91775   1.92435   1.93415   1.94529   1.95886
 Alpha virt. eigenvalues --    1.96973   1.98307   1.99232   1.99912   2.01100
 Alpha virt. eigenvalues --    2.02505   2.03192   2.04189   2.04700   2.05237
 Alpha virt. eigenvalues --    2.06014   2.07581   2.08393   2.09026   2.10113
 Alpha virt. eigenvalues --    2.11105   2.11307   2.12146   2.12553   2.14350
 Alpha virt. eigenvalues --    2.15304   2.15395   2.18291   2.19315   2.19888
 Alpha virt. eigenvalues --    2.20409   2.21754   2.23325   2.23971   2.25032
 Alpha virt. eigenvalues --    2.26881   2.27533   2.29816   2.30397   2.33566
 Alpha virt. eigenvalues --    2.35871   2.36405   2.37626   2.38368   2.39156
 Alpha virt. eigenvalues --    2.40534   2.44286   2.44546   2.46912   2.47310
 Alpha virt. eigenvalues --    2.49017   2.50643   2.51737   2.53762   2.55791
 Alpha virt. eigenvalues --    2.59375   2.60942   2.63347   2.63534   2.66378
 Alpha virt. eigenvalues --    2.67019   2.68998   2.69931   2.72154   2.75067
 Alpha virt. eigenvalues --    2.75980   2.77729   2.80281   2.82263   2.83768
 Alpha virt. eigenvalues --    2.85092   2.86685   2.87696   2.95403   2.99669
 Alpha virt. eigenvalues --    2.99731   3.01735   3.03668   3.22869   3.23745
 Alpha virt. eigenvalues --    3.25422   3.33357   3.35241   3.41173   3.42047
 Alpha virt. eigenvalues --    3.44873   3.51178   3.62065   3.65805
          Condensed to atoms (all electrons):
               1          2          3          4          5          6
     1  C    5.305016   0.393745   0.065163  -0.112920  -0.001857   0.000136
     2  C    0.393745   5.036409   0.370619   0.068787   0.012275  -0.000813
     3  C    0.065163   0.370619   5.028992   0.394303  -0.142348   0.011914
     4  C   -0.112920   0.068787   0.394303   5.158555   0.375307   0.068917
     5  C   -0.001857   0.012275  -0.142348   0.375307   5.018620   0.397924
     6  C    0.000136  -0.000813   0.011914   0.068917   0.397924   5.076565
     7  C   -0.000247   0.000060  -0.001273  -0.111308   0.062211   0.366359
     8  C   -0.000005   0.000001  -0.000003  -0.002215   0.017600  -0.147936
     9  C    0.000001  -0.000000   0.000002  -0.000031  -0.000101   0.019433
    10  C   -0.000008   0.000002  -0.000006  -0.000168   0.000059  -0.003994
    11  C   -0.002389  -0.000017  -0.000186   0.029084  -0.004466   0.027364
    12  C    0.018354  -0.000026   0.000064  -0.004782   0.000016   0.000041
    13  C   -0.163743   0.018882  -0.003964   0.026988   0.000044  -0.000067
    14  C    0.234550   0.007003  -0.126723  -0.069695   0.024790  -0.004539
    15  C   -0.008106  -0.117435   0.021874   0.270247   0.016396  -0.120709
    16  C    0.030701  -0.003921   0.025559  -0.052291  -0.125334  -0.004450
    17  C    0.325098  -0.128093   0.015170  -0.001850  -0.000003   0.000001
    18  C    0.000000   0.000000  -0.000001  -0.000043   0.000270  -0.023566
    19  C   -0.027135  -0.025370  -0.000167  -0.000001  -0.000000  -0.000000
    20  C    0.000000  -0.000000  -0.000000   0.000002  -0.000064  -0.000350
    21  O   -0.000000   0.000000  -0.000000  -0.000000  -0.000000  -0.000011
    22  C   -0.000000   0.000000   0.000000   0.000000   0.000000   0.000001
    23  N    0.003287  -0.000317  -0.000006   0.000000  -0.000000  -0.000000
    24  O   -0.000111   0.000007  -0.000000  -0.000000  -0.000000   0.000000
    25  O    0.001457   0.000027   0.000000  -0.000000  -0.000000   0.000000
    26  H   -0.030547   0.383967  -0.052696   0.010401  -0.000343   0.000006
    27  H    0.010155  -0.048307   0.381896  -0.037447  -0.021114   0.000845
    28  H   -0.000073   0.000751  -0.022128  -0.039747   0.381036  -0.044557
    29  H    0.000001   0.000008  -0.000343   0.009540  -0.056823   0.377317
    30  H    0.000000   0.000000   0.000000  -0.000001   0.000005  -0.000291
    31  H   -0.000001   0.000000  -0.000000   0.000006  -0.000000   0.000042
    32  H   -0.000401   0.000006   0.000001   0.000023   0.000000   0.000006
    33  H   -0.053146  -0.001300   0.000015  -0.000064   0.000001  -0.000000
    34  H    0.025762   0.013566  -0.000021  -0.000134  -0.000000   0.000000
    35  H   -0.000000   0.000000  -0.000000  -0.000086   0.002000   0.009604
    36  H   -0.024328   0.006493   0.001002  -0.000071  -0.000000   0.000000
    37  H   -0.000000   0.000000   0.000000  -0.000000   0.000002  -0.000016
    38  H   -0.000000   0.000000  -0.000000  -0.000000   0.000000  -0.000000
    39  H    0.000000  -0.000000  -0.000000   0.000000   0.000000   0.000000
    40  H   -0.000000  -0.000000  -0.000000  -0.000000  -0.000000  -0.000000
               7          8          9         10         11         12
     1  C   -0.000247  -0.000005   0.000001  -0.000008  -0.002389   0.018354
     2  C    0.000060   0.000001  -0.000000   0.000002  -0.000017  -0.000026
     3  C   -0.001273  -0.000003   0.000002  -0.000006  -0.000186   0.000064
     4  C   -0.111308  -0.002215  -0.000031  -0.000168   0.029084  -0.004782
     5  C    0.062211   0.017600  -0.000101   0.000059  -0.004466   0.000016
     6  C    0.366359  -0.147936   0.019433  -0.003994   0.027364   0.000041
     7  C    5.418130   0.293725   0.035241  -0.122769  -0.075009   0.025097
     8  C    0.293725   5.158716   0.409128   0.054570  -0.107263  -0.001811
     9  C    0.035241   0.409128   5.001361   0.367552   0.063621   0.012221
    10  C   -0.122769   0.054570   0.367552   5.028860   0.407904  -0.143648
    11  C   -0.075009  -0.107263   0.063621   0.407904   5.158488   0.364656
    12  C    0.025097  -0.001811   0.012221  -0.143648   0.364656   5.020606
    13  C   -0.004363   0.000125  -0.000757   0.011999   0.067003   0.395736
    14  C    0.029642  -0.000210   0.000071  -0.001482  -0.112277   0.068358
    15  C   -0.056289   0.029141  -0.004622   0.026756  -0.051610  -0.127560
    16  C    0.223539  -0.016280  -0.118506   0.019771   0.273917   0.019252
    17  C    0.000002   0.000000   0.000000  -0.000001  -0.000105   0.000754
    18  C   -0.084979   0.404411  -0.115112   0.013287  -0.001280  -0.000002
    19  C    0.000000   0.000000  -0.000000  -0.000000   0.000001  -0.000060
    20  C    0.012640  -0.028299  -0.019891   0.000234  -0.000019  -0.000000
    21  O   -0.000030   0.000717  -0.000033  -0.000003  -0.000000  -0.000000
    22  C    0.000003  -0.000104   0.000010  -0.000001   0.000000  -0.000000
    23  N   -0.000000   0.000000  -0.000000  -0.000000   0.000000  -0.000000
    24  O   -0.000000   0.000000   0.000000  -0.000000  -0.000000  -0.000000
    25  O   -0.000000  -0.000000  -0.000000  -0.000000   0.000000  -0.000001
    26  H    0.000001   0.000000  -0.000000   0.000000   0.000000   0.000002
    27  H   -0.000046  -0.000001   0.000000  -0.000000   0.000005  -0.000000
    28  H    0.009718  -0.000421   0.000006   0.000000   0.000027   0.000001
    29  H   -0.014360  -0.045426  -0.000701  -0.000023  -0.000130   0.000001
    30  H    0.013199  -0.036464   0.374953  -0.046264   0.009312  -0.000374
    31  H    0.000543   0.009492  -0.049731   0.378828  -0.034231  -0.021449
    32  H   -0.000171  -0.000064   0.000664  -0.021945  -0.041246   0.379249
    33  H    0.000024   0.000001   0.000007  -0.000318   0.009900  -0.055093
    34  H    0.000000  -0.000000   0.000000  -0.000001  -0.000109   0.001604
    35  H   -0.036833   0.002644   0.010134  -0.000126  -0.000015   0.000001
    36  H   -0.000000  -0.000000   0.000000   0.000000  -0.000000   0.000002
    37  H   -0.000423  -0.019113   0.007347   0.000839  -0.000047  -0.000000
    38  H   -0.000000   0.000002   0.000000  -0.000000  -0.000000   0.000000
    39  H   -0.000001   0.000044  -0.000034  -0.000001   0.000000   0.000000
    40  H    0.000000  -0.000033   0.000038   0.000003  -0.000000  -0.000000
              13         14         15         16         17         18
     1  C   -0.163743   0.234550  -0.008106   0.030701   0.325098   0.000000
     2  C    0.018882   0.007003  -0.117435  -0.003921  -0.128093   0.000000
     3  C   -0.003964  -0.126723   0.021874   0.025559   0.015170  -0.000001
     4  C    0.026988  -0.069695   0.270247  -0.052291  -0.001850  -0.000043
     5  C    0.000044   0.024790   0.016396  -0.125334  -0.000003   0.000270
     6  C   -0.000067  -0.004539  -0.120709  -0.004450   0.000001  -0.023566
     7  C   -0.004363   0.029642  -0.056289   0.223539   0.000002  -0.084979
     8  C    0.000125  -0.000210   0.029141  -0.016280   0.000000   0.404411
     9  C   -0.000757   0.000071  -0.004622  -0.118506   0.000000  -0.115112
    10  C    0.011999  -0.001482   0.026756   0.019771  -0.000001   0.013287
    11  C    0.067003  -0.112277  -0.051610   0.273917  -0.000105  -0.001280
    12  C    0.395736   0.068358  -0.127560   0.019252   0.000754  -0.000002
    13  C    5.099636   0.375637  -0.008646  -0.120456  -0.020634   0.000000
    14  C    0.375637   5.492189   0.211236  -0.054528  -0.085437   0.000000
    15  C   -0.008646   0.211236   5.618595   0.166869   0.021307  -0.000106
    16  C   -0.120456  -0.054528   0.166869   5.607430  -0.000244   0.019875
    17  C   -0.020634  -0.085437   0.021307  -0.000244   5.143179  -0.000000
    18  C    0.000000   0.000000  -0.000106   0.019875  -0.000000   5.012215
    19  C    0.000120   0.015600  -0.000234  -0.000001   0.377207  -0.000000
    20  C   -0.000000   0.000000  -0.000000  -0.000059   0.000000   0.571215
    21  O    0.000000  -0.000000   0.000000   0.000001  -0.000000  -0.042519
    22  C    0.000000  -0.000000   0.000000  -0.000000  -0.000000   0.006911
    23  N   -0.000025  -0.000038   0.000001  -0.000000  -0.016883   0.000000
    24  O   -0.000000  -0.000000   0.000000   0.000000   0.011127   0.000000
    25  O   -0.000022  -0.000047   0.000000   0.000000   0.009727   0.000000
    26  H   -0.000165   0.014193  -0.000499   0.000033  -0.039893  -0.000000
    27  H    0.000041   0.000518   0.012627  -0.000351  -0.000319  -0.000000
    28  H    0.000005  -0.000177   0.013470   0.000098  -0.000001   0.000028
    29  H   -0.000000   0.000024  -0.000512   0.016307   0.000000   0.014908
    30  H    0.000008   0.000001   0.000042   0.000185  -0.000000  -0.025596
    31  H    0.000793  -0.000044  -0.000378   0.012954  -0.000000  -0.000348
    32  H   -0.041209   0.010334   0.000021   0.013226   0.000049  -0.000001
    33  H    0.381779  -0.012974   0.016030  -0.000779   0.016291   0.000000
    34  H    0.007542  -0.047556  -0.000907   0.000154   0.337215   0.000000
    35  H   -0.000000   0.000001   0.000065  -0.001302   0.000000   0.344356
    36  H    0.000008  -0.000626   0.000055   0.000000  -0.027731  -0.000000
    37  H    0.000000   0.000000   0.000001   0.000014   0.000000  -0.043393
    38  H   -0.000000   0.000000  -0.000000   0.000000  -0.000000  -0.000634
    39  H   -0.000000   0.000000  -0.000000  -0.000000   0.000000   0.001052
    40  H    0.000000  -0.000000   0.000000   0.000000   0.000000   0.001060
              19         20         21         22         23         24
     1  C   -0.027135   0.000000  -0.000000  -0.000000   0.003287  -0.000111
     2  C   -0.025370  -0.000000   0.000000   0.000000  -0.000317   0.000007
     3  C   -0.000167  -0.000000  -0.000000   0.000000  -0.000006  -0.000000
     4  C   -0.000001   0.000002  -0.000000   0.000000   0.000000  -0.000000
     5  C   -0.000000  -0.000064  -0.000000   0.000000  -0.000000  -0.000000
     6  C   -0.000000  -0.000350  -0.000011   0.000001  -0.000000   0.000000
     7  C    0.000000   0.012640  -0.000030   0.000003  -0.000000  -0.000000
     8  C    0.000000  -0.028299   0.000717  -0.000104   0.000000   0.000000
     9  C   -0.000000  -0.019891  -0.000033   0.000010  -0.000000   0.000000
    10  C   -0.000000   0.000234  -0.000003  -0.000001  -0.000000  -0.000000
    11  C    0.000001  -0.000019  -0.000000   0.000000   0.000000  -0.000000
    12  C   -0.000060  -0.000000  -0.000000  -0.000000  -0.000000  -0.000000
    13  C    0.000120  -0.000000   0.000000   0.000000  -0.000025  -0.000000
    14  C    0.015600   0.000000  -0.000000  -0.000000  -0.000038  -0.000000
    15  C   -0.000234  -0.000000   0.000000   0.000000   0.000001   0.000000
    16  C   -0.000001  -0.000059   0.000001  -0.000000  -0.000000   0.000000
    17  C    0.377207   0.000000  -0.000000  -0.000000  -0.016883   0.011127
    18  C   -0.000000   0.571215  -0.042519   0.006911   0.000000   0.000000
    19  C    5.178277  -0.000000   0.000000   0.000000   0.267570  -0.091838
    20  C   -0.000000   4.655964   0.380782  -0.058154   0.000000   0.000000
    21  O    0.000000   0.380782   7.677994   0.346855   0.000000   0.000000
    22  C    0.000000  -0.058154   0.346855   4.427439   0.000000   0.000000
    23  N    0.267570   0.000000   0.000000   0.000000   5.717931   0.413605
    24  O   -0.091838   0.000000   0.000000   0.000000   0.413605   8.004679
    25  O   -0.123440   0.000000   0.000000   0.000000   0.443716  -0.091769
    26  H    0.009653  -0.000000  -0.000000   0.000000   0.000024  -0.000139
    27  H    0.000020   0.000000  -0.000000   0.000000  -0.000000   0.000000
    28  H   -0.000000  -0.000000   0.000000  -0.000000   0.000000  -0.000000
    29  H   -0.000000   0.001941  -0.000117   0.000001   0.000000   0.000000
    30  H    0.000000   0.006780  -0.000176   0.000040  -0.000000   0.000000
    31  H    0.000000   0.000013  -0.000000   0.000000  -0.000000  -0.000000
    32  H   -0.000000  -0.000000   0.000000   0.000000  -0.000000   0.000000
    33  H    0.002790  -0.000000   0.000000   0.000000   0.000038  -0.000003
    34  H   -0.064547  -0.000000   0.000000  -0.000000  -0.016357   0.001404
    35  H    0.000000  -0.048794   0.005462  -0.000418   0.000000   0.000000
    36  H    0.381352   0.000000   0.000000   0.000000  -0.027685   0.011903
    37  H    0.000000   0.368343  -0.044223  -0.007173  -0.000000   0.000000
    38  H    0.000000   0.004322  -0.018032   0.398647   0.000000   0.000000
    39  H   -0.000000  -0.001001  -0.031469   0.386136   0.000000   0.000000
    40  H    0.000000  -0.002409  -0.031333   0.384609   0.000000   0.000000
              25         26         27         28         29         30
     1  C    0.001457  -0.030547   0.010155  -0.000073   0.000001   0.000000
     2  C    0.000027   0.383967  -0.048307   0.000751   0.000008   0.000000
     3  C    0.000000  -0.052696   0.381896  -0.022128  -0.000343   0.000000
     4  C   -0.000000   0.010401  -0.037447  -0.039747   0.009540  -0.000001
     5  C   -0.000000  -0.000343  -0.021114   0.381036  -0.056823   0.000005
     6  C    0.000000   0.000006   0.000845  -0.044557   0.377317  -0.000291
     7  C   -0.000000   0.000001  -0.000046   0.009718  -0.014360   0.013199
     8  C   -0.000000   0.000000  -0.000001  -0.000421  -0.045426  -0.036464
     9  C   -0.000000  -0.000000   0.000000   0.000006  -0.000701   0.374953
    10  C   -0.000000   0.000000  -0.000000   0.000000  -0.000023  -0.046264
    11  C    0.000000   0.000000   0.000005   0.000027  -0.000130   0.009312
    12  C   -0.000001   0.000002  -0.000000   0.000001   0.000001  -0.000374
    13  C   -0.000022  -0.000165   0.000041   0.000005  -0.000000   0.000008
    14  C   -0.000047   0.014193   0.000518  -0.000177   0.000024   0.000001
    15  C    0.000000  -0.000499   0.012627   0.013470  -0.000512   0.000042
    16  C    0.000000   0.000033  -0.000351   0.000098   0.016307   0.000185
    17  C    0.009727  -0.039893  -0.000319  -0.000001   0.000000  -0.000000
    18  C    0.000000  -0.000000  -0.000000   0.000028   0.014908  -0.025596
    19  C   -0.123440   0.009653   0.000020  -0.000000  -0.000000   0.000000
    20  C    0.000000  -0.000000   0.000000  -0.000000   0.001941   0.006780
    21  O    0.000000  -0.000000  -0.000000   0.000000  -0.000117  -0.000176
    22  C    0.000000   0.000000   0.000000  -0.000000   0.000001   0.000040
    23  N    0.443716   0.000024  -0.000000   0.000000   0.000000  -0.000000
    24  O   -0.091769  -0.000139   0.000000  -0.000000   0.000000   0.000000
    25  O    7.969376  -0.000005   0.000000   0.000000   0.000000   0.000000
    26  H   -0.000005   0.761934  -0.016972  -0.000015  -0.000000   0.000000
    27  H    0.000000  -0.016972   0.757828   0.004427  -0.000025  -0.000000
    28  H    0.000000  -0.000015   0.004427   0.761197  -0.017368  -0.000000
    29  H    0.000000  -0.000000  -0.000025  -0.017368   0.758367  -0.000035
    30  H    0.000000   0.000000  -0.000000  -0.000000  -0.000035   0.764292
    31  H   -0.000000  -0.000000   0.000000   0.000000   0.000001  -0.016403
    32  H    0.000000  -0.000000   0.000000   0.000000  -0.000000  -0.000018
    33  H   -0.000807  -0.000034   0.000001  -0.000000   0.000000  -0.000000
    34  H    0.049088   0.000162   0.000004   0.000000   0.000000  -0.000000
    35  H   -0.000000   0.000000   0.000000   0.000100  -0.005570   0.000063
    36  H    0.005279  -0.003830   0.000087  -0.000000  -0.000000   0.000000
    37  H    0.000000   0.000000   0.000000   0.000000  -0.000089   0.001278
    38  H    0.000000   0.000000   0.000000  -0.000000   0.000001  -0.000001
    39  H    0.000000   0.000000   0.000000   0.000000   0.000001  -0.000056
    40  H    0.000000  -0.000000  -0.000000   0.000000  -0.000001   0.000162
              31         32         33         34         35         36
     1  C   -0.000001  -0.000401  -0.053146   0.025762  -0.000000  -0.024328
     2  C    0.000000   0.000006  -0.001300   0.013566   0.000000   0.006493
     3  C   -0.000000   0.000001   0.000015  -0.000021  -0.000000   0.001002
     4  C    0.000006   0.000023  -0.000064  -0.000134  -0.000086  -0.000071
     5  C   -0.000000   0.000000   0.000001  -0.000000   0.002000  -0.000000
     6  C    0.000042   0.000006  -0.000000   0.000000   0.009604   0.000000
     7  C    0.000543  -0.000171   0.000024   0.000000  -0.036833  -0.000000
     8  C    0.009492  -0.000064   0.000001  -0.000000   0.002644  -0.000000
     9  C   -0.049731   0.000664   0.000007   0.000000   0.010134   0.000000
    10  C    0.378828  -0.021945  -0.000318  -0.000001  -0.000126   0.000000
    11  C   -0.034231  -0.041246   0.009900  -0.000109  -0.000015  -0.000000
    12  C   -0.021449   0.379249  -0.055093   0.001604   0.000001   0.000002
    13  C    0.000793  -0.041209   0.381779   0.007542  -0.000000   0.000008
    14  C   -0.000044   0.010334  -0.012974  -0.047556   0.000001  -0.000626
    15  C   -0.000378   0.000021   0.016030  -0.000907   0.000065   0.000055
    16  C    0.012954   0.013226  -0.000779   0.000154  -0.001302   0.000000
    17  C   -0.000000   0.000049   0.016291   0.337215   0.000000  -0.027731
    18  C   -0.000348  -0.000001   0.000000   0.000000   0.344356  -0.000000
    19  C    0.000000  -0.000000   0.002790  -0.064547   0.000000   0.381352
    20  C    0.000013  -0.000000  -0.000000  -0.000000  -0.048794   0.000000
    21  O   -0.000000   0.000000   0.000000   0.000000   0.005462   0.000000
    22  C    0.000000   0.000000   0.000000  -0.000000  -0.000418   0.000000
    23  N   -0.000000  -0.000000   0.000038  -0.016357   0.000000  -0.027685
    24  O   -0.000000   0.000000  -0.000003   0.001404   0.000000   0.011903
    25  O   -0.000000   0.000000  -0.000807   0.049088  -0.000000   0.005279
    26  H   -0.000000  -0.000000  -0.000034   0.000162   0.000000  -0.003830
    27  H    0.000000   0.000000   0.000001   0.000004   0.000000   0.000087
    28  H    0.000000   0.000000  -0.000000   0.000000   0.000100  -0.000000
    29  H    0.000001  -0.000000   0.000000   0.000000  -0.005570  -0.000000
    30  H   -0.016403  -0.000018  -0.000000  -0.000000   0.000063   0.000000
    31  H    0.759301   0.004722  -0.000025   0.000000   0.000007   0.000000
    32  H    0.004722   0.758789  -0.018120   0.000144   0.000000   0.000000
    33  H   -0.000025  -0.018120   0.760673  -0.012977   0.000000  -0.000003
    34  H    0.000000   0.000144  -0.012977   0.696416   0.000000   0.007844
    35  H    0.000007   0.000000   0.000000   0.000000   0.716015   0.000000
    36  H    0.000000   0.000000  -0.000003   0.007844   0.000000   0.676016
    37  H    0.000056   0.000000  -0.000000   0.000000   0.012325   0.000000
    38  H    0.000000   0.000000   0.000000   0.000000  -0.000055   0.000000
    39  H    0.000000  -0.000000  -0.000000  -0.000000   0.000075  -0.000000
    40  H   -0.000000   0.000000   0.000000   0.000000   0.000218   0.000000
              37         38         39         40
     1  C   -0.000000  -0.000000   0.000000  -0.000000
     2  C    0.000000   0.000000  -0.000000  -0.000000
     3  C    0.000000  -0.000000  -0.000000  -0.000000
     4  C   -0.000000  -0.000000   0.000000  -0.000000
     5  C    0.000002   0.000000   0.000000  -0.000000
     6  C   -0.000016  -0.000000   0.000000  -0.000000
     7  C   -0.000423  -0.000000  -0.000001   0.000000
     8  C   -0.019113   0.000002   0.000044  -0.000033
     9  C    0.007347   0.000000  -0.000034   0.000038
    10  C    0.000839  -0.000000  -0.000001   0.000003
    11  C   -0.000047  -0.000000   0.000000  -0.000000
    12  C   -0.000000   0.000000   0.000000  -0.000000
    13  C    0.000000  -0.000000  -0.000000   0.000000
    14  C    0.000000   0.000000   0.000000  -0.000000
    15  C    0.000001  -0.000000  -0.000000   0.000000
    16  C    0.000014   0.000000  -0.000000   0.000000
    17  C    0.000000  -0.000000   0.000000   0.000000
    18  C   -0.043393  -0.000634   0.001052   0.001060
    19  C    0.000000   0.000000  -0.000000   0.000000
    20  C    0.368343   0.004322  -0.001001  -0.002409
    21  O   -0.044223  -0.018032  -0.031469  -0.031333
    22  C   -0.007173   0.398647   0.386136   0.384609
    23  N   -0.000000   0.000000   0.000000   0.000000
    24  O    0.000000   0.000000   0.000000   0.000000
    25  O    0.000000   0.000000   0.000000   0.000000
    26  H    0.000000   0.000000   0.000000  -0.000000
    27  H    0.000000   0.000000   0.000000  -0.000000
    28  H    0.000000  -0.000000   0.000000   0.000000
    29  H   -0.000089   0.000001   0.000001  -0.000001
    30  H    0.001278  -0.000001  -0.000056   0.000162
    31  H    0.000056   0.000000   0.000000  -0.000000
    32  H    0.000000   0.000000  -0.000000   0.000000
    33  H   -0.000000   0.000000  -0.000000   0.000000
    34  H    0.000000   0.000000  -0.000000   0.000000
    35  H    0.012325  -0.000055   0.000075   0.000218
    36  H    0.000000   0.000000  -0.000000   0.000000
    37  H    0.724167   0.000026   0.004229   0.007029
    38  H    0.000026   0.631011  -0.029616  -0.028275
    39  H    0.004229  -0.029616   0.686357  -0.045981
    40  H    0.007029  -0.028275  -0.045981   0.687358
 Mulliken charges:
               1
     1  C    0.011592
     2  C    0.012990
     3  C    0.033291
     4  C    0.020693
     5  C    0.043897
     6  C   -0.005173
     7  C    0.017964
     8  C    0.025334
     9  C    0.007729
    10  C    0.030094
    11  C    0.019115
    12  C    0.048793
    13  C   -0.022295
    14  C    0.032207
    15  C    0.072881
    16  C    0.068618
    17  C    0.064065
    18  C   -0.052008
    19  C    0.100204
    20  C    0.156803
    21  O   -0.243864
    22  C    0.115197
    23  N    0.215140
    24  O   -0.258864
    25  O   -0.262579
    26  H   -0.035238
    27  H   -0.043873
    28  H   -0.046377
    29  H   -0.036896
    30  H   -0.044643
    31  H   -0.044149
    32  H   -0.044058
    33  H   -0.031906
    34  H    0.001704
    35  H   -0.009865
    36  H   -0.005768
    37  H   -0.011178
    38  H    0.042606
    39  H    0.030265
    40  H    0.027555
 Sum of Mulliken charges =  -0.00000
 Mulliken charges with hydrogens summed into heavy atoms:
               1
     1  C    0.011592
     2  C   -0.022248
     3  C   -0.010582
     4  C    0.020693
     5  C   -0.002481
     6  C   -0.042069
     7  C    0.017964
     8  C    0.025334
     9  C   -0.036914
    10  C   -0.014055
    11  C    0.019115
    12  C    0.004734
    13  C   -0.054201
    14  C    0.032207
    15  C    0.072881
    16  C    0.068618
    17  C    0.065770
    18  C   -0.061873
    19  C    0.094435
    20  C    0.145625
    21  O   -0.243864
    22  C    0.215622
    23  N    0.215140
    24  O   -0.258864
    25  O   -0.262579
 Electronic spatial extent (au):  <R**2>=          13242.2504
 Charge=              0.0000 electrons
 Dipole moment (field-independent basis, Debye):
    X=              9.5633    Y=              0.7286    Z=              0.6280  Tot=              9.6116
 Quadrupole moment (field-independent basis, Debye-Ang):
   XX=           -157.8787   YY=           -130.0693   ZZ=           -147.4920
   XY=            -16.8895   XZ=              7.3839   YZ=             -0.2798
 Traceless Quadrupole moment (field-independent basis, Debye-Ang):
   XX=            -12.7320   YY=             15.0773   ZZ=             -2.3453
   XY=            -16.8895   XZ=              7.3839   YZ=             -0.2798
 Octapole moment (field-independent basis, Debye-Ang**2):
  XXX=            745.7758  YYY=              5.8084  ZZZ=              5.9173  XYY=              9.4139
  XXY=             17.9921  XXZ=             40.4571  XZZ=            -15.0411  YZZ=             -2.9731
  YYZ=             -1.1782  XYZ=             -5.1192
 Hexadecapole moment (field-independent basis, Debye-Ang**3):
 XXXX=         -15843.3283 YYYY=          -1815.0650 ZZZZ=           -193.3209 XXXY=           -627.9425
 XXXZ=            468.4550 YYYX=            -23.1093 YYYZ=              1.9630 ZZZX=              6.5084
 ZZZY=             -3.1293 XXYY=          -2842.3333 XXZZ=          -2499.7598 YYZZ=           -393.1378
 XXYZ=             -4.3923 YYXZ=             -4.2259 ZZXY=             30.4822
 N-N= 1.906509203178D+03 E-N=-6.348110550876D+03  KE= 1.082693999203D+03
  Exact polarizability:     661.731     -29.413     270.168       0.869      -1.470      90.157
 Approx polarizability:    1078.678     -81.801     532.639      -9.234      -2.960     150.608
 No NMR shielding tensors so no spin-rotation constants.
 Leave Link  601 at Fri Aug 15 18:36:54 2025, MaxMem=  1342177280 cpu:               5.2 elap:               0.4
 (Enter /opt/bwhpc/common/chem/gaussian/g16.C.01/x86_64-Intel-avx2-source/g16/l9999.exe)

 ----------------------------------------------------------------------

 Electric dipole moment (input orientation):
 (Debye = 10**-18 statcoulomb cm , SI units = C m)
                  (au)            (Debye)         (10**-30 SI)
   Tot        0.378149D+01      0.961159D+01      0.320608D+02
   x          0.206735D+01      0.525467D+01      0.175277D+02
   y         -0.311766D+01     -0.792430D+01     -0.264326D+02
   z          0.553120D+00      0.140589D+01      0.468954D+01

 Dipole polarizability, Alpha (input orientation).
 (esu units = cm**3 , SI units = C**2 m**2 J**-1)
 Alpha(0;0):
               (au)            (10**-24 esu)      (10**-40 SI)
   iso        0.340685D+03      0.504844D+02      0.561714D+02
   aniso      0.508740D+03      0.753874D+02      0.838798D+02
   xx         0.337528D+03      0.500164D+02      0.556508D+02
   yx        -0.149913D+03     -0.222149D+02     -0.247174D+02
   yy         0.590675D+03      0.875289D+02      0.973891D+02
   zx         0.226296D+02      0.335336D+01      0.373112D+01
   zy        -0.396318D+02     -0.587283D+01     -0.653440D+01
   zz         0.938539D+02      0.139077D+02      0.154744D+02

 First dipole hyperpolarizability, Beta (input orientation).
 ||, _|_  parallel and perpendicular components, (z) with respect to z axis,
 vector components x,y,z.  Values do not include the 1/n! factor of 1/2.
 (esu units = statvolt**-1 cm**4 , SI units = C**3 m**3 J**-2)
 Beta(0;0,0):
               (au)            (10**-30 esu)      (10**-50 SI)
   || (z)    -0.514617D+03     -0.444589D+01     -0.165005D+01
   _|_(z)    -0.171539D+03     -0.148196D+01     -0.550016D+00
   x         -0.232980D+05     -0.201276D+03     -0.747018D+02
   y          0.338350D+05      0.292308D+03      0.108487D+03
   z         -0.257308D+04     -0.222294D+02     -0.825024D+01
   ||         0.823220D+04      0.711198D+02      0.263954D+02
   xxx       -0.237781D+04     -0.205424D+02     -0.762412D+01
   xxy        0.368962D+04      0.318754D+02      0.118302D+02
   yxy       -0.538899D+04     -0.465567D+02     -0.172790D+02
   yyy        0.762519D+04      0.658757D+02      0.244491D+02
   xxz       -0.320483D+03     -0.276872D+01     -0.102758D+01
   yxz        0.444366D+03      0.383897D+01      0.142480D+01
   yyz       -0.621852D+03     -0.537232D+01     -0.199388D+01
   zxz        0.801488D+00      0.692424D-02      0.256986D-02
   zyz       -0.364627D+02     -0.315010D+00     -0.116913D+00
   zzz        0.846404D+02      0.731227D+00      0.271388D+00

 ----------------------------------------------------------------------

 Dipole orientation:
     6         -7.20001969         -3.13551234        -12.59958362
     6         -5.00842901         -1.64912599        -12.25465384
     6         -3.98581043         -1.22079705         -9.88906818
     6         -5.10689016         -2.26861004         -7.70896980
     6         -4.09383322         -1.83533187         -5.23902975
     6         -5.19039898         -2.85660440         -3.13639828
     6         -7.39867692         -4.42726438         -3.29514566
     6         -8.55522961         -5.51862446         -1.10942752
     6        -10.73607884         -7.01508316         -1.45511560
     6        -11.78752918         -7.41740823         -3.82223864
     6        -10.68881819         -6.37072180         -6.00647936
     6        -11.71406084         -6.78228202         -8.47496332
     6        -10.62328030         -5.76819354        -10.58315017
     6         -8.38886230         -4.23028288        -10.42865075
     6         -7.32319861         -3.79164475         -7.96659287
     6         -8.46433390         -4.86439940         -5.75214479
     6         -8.22422177         -3.53725245        -15.12119727
     6         -7.50277273         -5.11919754          1.41897495
     6         -7.28304397         -2.67675682        -17.32511925
     6         -8.81681837         -5.27192945          3.59847024
     8         -7.68649132         -4.97101128          5.86034994
     6         -9.28200261         -4.88452895          8.00464142
     7         -8.55194176         -3.25176566        -19.69258576
     8         -7.55323703         -2.39857757        -21.60120487
     8        -10.49071509         -4.51679715        -19.67081395
     1         -4.09316286         -0.80360911        -13.89877341
     1         -2.29170249         -0.05586409         -9.68874109
     1         -2.41184515         -0.64891236         -5.05905184
     1         -4.37064596         -2.44938358         -1.29094877
     1        -11.59102924         -7.93724919          0.18149759
     1        -13.47289295         -8.59839474         -4.01210910
     1        -13.41467901         -7.94297122         -8.65374082
     1        -11.48366429         -6.14623221        -12.41493433
     1         -9.94688725         -4.65078660        -15.33215588
     1         -5.50143201         -4.64863985          1.60560494
     1         -5.59702902         -1.54106006        -17.63055978
     1        -10.85990465         -5.63145067          3.64670675
     1         -8.05446519         -4.73426760          9.67132622
     1        -10.55237517         -3.22775334          7.94943282
     1        -10.43598154         -6.61788784          8.17156680

 Electric dipole moment (dipole orientation):
 (Debye = 10**-18 statcoulomb cm , SI units = C m)
                  (au)            (Debye)         (10**-30 SI)
   Tot        0.378149D+01      0.961159D+01      0.320608D+02
   x          0.000000D+00      0.000000D+00      0.000000D+00
   y          0.000000D+00      0.000000D+00      0.000000D+00
   z          0.378149D+01      0.961159D+01      0.320608D+02

 Dipole polarizability, Alpha (dipole orientation).
 (esu units = cm**3 , SI units = C**2 m**2 J**-1)
 Alpha(0;0):
               (au)            (10**-24 esu)      (10**-40 SI)
   iso        0.340685D+03      0.504844D+02      0.561714D+02
   aniso      0.508740D+03      0.753874D+02      0.838798D+02
   xx         0.215431D+03      0.319236D+02      0.355197D+02
   yx         0.869574D+02      0.128858D+02      0.143373D+02
   yy         0.153923D+03      0.228090D+02      0.253784D+02
   zx        -0.278980D+02     -0.413406D+01     -0.459976D+01
   zy        -0.630099D+02     -0.933711D+01     -0.103889D+02
   zz         0.652702D+03      0.967205D+02      0.107616D+03

 First dipole hyperpolarizability, Beta (dipole orientation).
 ||, _|_  parallel and perpendicular components, (z) with respect to z axis,
 vector components x,y,z.  Values do not include the 1/n! factor of 1/2.
 (esu units = statvolt**-1 cm**4 , SI units = C**3 m**3 J**-2)
 Beta(0;0,0):
               (au)            (10**-30 esu)      (10**-50 SI)
   || (z)    -0.820176D+04     -0.708568D+02     -0.262978D+02
   _|_(z)    -0.273392D+04     -0.236189D+02     -0.876594D+01
   x         -0.251206D+04     -0.217022D+02     -0.805456D+01
   y          0.248885D+04      0.215018D+02      0.798016D+01
   z         -0.410088D+05     -0.354284D+03     -0.131489D+03
   ||         0.823220D+04      0.711198D+02      0.263954D+02
   xxx        0.287254D+02      0.248165D+00      0.921042D-01
   xxy        0.378229D+02      0.326760D+00      0.121274D+00
   yxy       -0.219524D+02     -0.189651D+00     -0.703873D-01
   yyy        0.528973D+01      0.456992D-01      0.169608D-01
   xxz        0.813331D+02      0.702655D+00      0.260783D+00
   yxz        0.476041D+02      0.411262D+00      0.152636D+00
   yyz        0.470720D+02      0.406665D+00      0.150930D+00
   zxz       -0.844125D+03     -0.729259D+01     -0.270657D+01
   zyz        0.786505D+03      0.679479D+01      0.252182D+01
   zzz       -0.137980D+05     -0.119204D+03     -0.442414D+02

 ----------------------------------------------------------------------
 Unable to Open any file for archive entry.
 1\1\GINC-N1532\SP\RB3LYP\CC-pVDZ\C21H15N1O3\KA_PR7831\15-Aug-2025\0\\#
 P b3lyp/cc-pvdz polar\\p\\0,1\C,0,-7.1141541,3.3234504,-0.2602295\C,0,
 -5.8477331,3.9491319,-0.21908\C,0,-4.6741915,3.2221117,-0.1449505\C,0,
 -4.7000768,1.8120201,-0.1090151\C,0,-3.4990559,1.0385484,-0.0218828\C,
 0,-3.5322402,-0.3269286,0.0125436\C,0,-4.7688619,-1.0554614,-0.0461342
 \C,0,-4.8160596,-2.4847653,-0.0185002\C,0,-6.0805938,-3.1100503,-0.067
 2103\C,0,-7.2604482,-2.3827579,-0.1217727\C,0,-7.2447463,-0.9757562,-0
 .1520489\C,0,-8.4455939,-0.2007777,-0.226068\C,0,-8.4177748,1.1643719,
 -0.262385\C,0,-7.1789706,1.8931436,-0.2258863\C,0,-5.9585351,1.1352116
 ,-0.1522449\C,0,-5.9875185,-0.2994113,-0.1187302\C,0,-8.3279218,4.1239
 4,-0.3343777\C,0,-3.589756,-3.2828357,0.0469901\C,0,-8.4182829,5.46664
 65,-0.4018342\C,0,-3.5050551,-4.5400316,0.5292116\O,0,-2.3458922,-5.22
 68369,0.5085667\C,0,-2.3317088,-6.4757188,1.1738567\N,0,-9.7192336,6.1
 116492,-0.4688539\O,0,-9.7031791,7.3359168,-0.5332839\O,0,-10.734606,5
 .4262648,-0.4581872\H,0,-5.7893955,5.0389891,-0.2422448\H,0,-3.7111064
 ,3.738129,-0.111315\H,0,-2.5421282,1.5655496,0.0230581\H,0,-2.5929278,
 -0.8737816,0.0958934\H,0,-6.1334568,-4.200591,-0.0955166\H,0,-8.220427
 9,-2.9049754,-0.1641324\H,0,-9.4041084,-0.7266373,-0.2543006\H,0,-9.36
 29563,1.7030938,-0.3201908\H,0,-9.2945592,3.6176892,-0.33815\H,0,-2.65
 49304,-2.84647,-0.3122608\H,0,-7.6107669,6.1953399,-0.4177605\H,0,-4.3
 651596,-5.0636363,0.9671621\H,0,-1.3380573,-6.9150729,1.01329\H,0,-2.4
 999055,-6.3591307,2.2599255\H,0,-3.0955279,-7.1620006,0.7643934\\Versi
 on=ES64L-G16RevC.01\State=1-A\HF=-1089.6622956\RMSD=7.220e-09\Dipole=2
 .067347,-3.1176581,0.5531197\Polar=337.5275574,-149.9134505,590.674543
 5,22.6296044,-39.6318088,93.8538661\HyperPolar=-2377.8105764,3689.6181
 681,-5388.9873248,7625.188502,-320.4827516,444.3658261,-621.852354,0.8
 014884,-36.4627452,84.6403893\Quadrupole=-4.6919058,5.6610731,-0.96916
 74,15.7571058,1.4052336,-4.3871345\PG=C01 [X(C21H15N1O3)]\\@
 The archive entry for this job was punched.


 OF ALL THE WONDERS OF THE UNIVERSE, THE GREATEST IS MAN.

                                    -- ARISTOTLE
 Job cpu time:       0 days  1 hours  3 minutes  2.2 seconds.
 Elapsed time:       0 days  0 hours  3 minutes 57.4 seconds.
 File lengths (MBytes):  RWF=    101 Int=      0 D2E=      0 Chk=     13 Scr=      1
 Normal termination of Gaussian 16 at Fri Aug 15 18:36:54 2025.
