 Entering Gaussian System, Link 0=g16
 Initial command:
 /opt/bwhpc/common/chem/gaussian/g16.C.01/x86_64-Intel-avx2-source/g16/l1.exe "/tmp/ka_pr7831.18367564/g16.18367564.250815_155911/Gau-105270.inp" -scrdir="/tmp/ka_pr7831.18367564/g16.18367564.250815_155911/"
 Entering Link 1 = /opt/bwhpc/common/chem/gaussian/g16.C.01/x86_64-Intel-avx2-source/g16/l1.exe PID=    105272.
  
 Copyright (c) 1988-2019, Gaussian, Inc.  All Rights Reserved.
  
 This is part of the Gaussian(R) 16 program.  It is based on
 the Gaussian(R) 09 system (copyright 2009, Gaussian, Inc.),
 the Gaussian(R) 03 system (copyright 2003, Gaussian, Inc.),
 the Gaussian(R) 98 system (copyright 1998, Gaussian, Inc.),
 the Gaussian(R) 94 system (copyright 1995, Gaussian, Inc.),
 the Gaussian 92(TM) system (copyright 1992, Gaussian, Inc.),
 the Gaussian 90(TM) system (copyright 1990, Gaussian, Inc.),
 the Gaussian 88(TM) system (copyright 1988, Gaussian, Inc.),
 the Gaussian 86(TM) system (copyright 1986, Carnegie Mellon
 University), and the Gaussian 82(TM) system (copyright 1983,
 Carnegie Mellon University). Gaussian is a federally registered
 trademark of Gaussian, Inc.
  
 This software contains proprietary and confidential information,
 including trade secrets, belonging to Gaussian, Inc.
  
 This software is provided under written license and may be
 used, copied, transmitted, or stored only in accord with that
 written license.
  
 The following legend is applicable only to US Government
 contracts under FAR:
  
                    RESTRICTED RIGHTS LEGEND
  
 Use, reproduction and disclosure by the US Government is
 subject to restrictions as set forth in subparagraphs (a)
 and (c) of the Commercial Computer Software - Restricted
 Rights clause in FAR 52.227-19.
  
 Gaussian, Inc.
 340 Quinnipiac St., Bldg. 40, Wallingford CT 06492
  
  
 ---------------------------------------------------------------
 Warning -- This program may not be used in any manner that
 competes with the business of Gaussian, Inc. or will provide
 assistance to any competitor of Gaussian, Inc.  The licensee
 of this program is prohibited from giving any competitor of
 Gaussian, Inc. access to this program.  By using this program,
 the user acknowledges that Gaussian, Inc. is engaged in the
 business of creating and licensing software in the field of
 computational chemistry and represents and warrants to the
 licensee that it is not a competitor of Gaussian, Inc. and that
 it will not use this program in any manner prohibited above.
 ---------------------------------------------------------------
  

 Cite this work as:
 Gaussian 16, Revision C.01,
 M. J. Frisch, G. W. Trucks, H. B. Schlegel, G. E. Scuseria, 
 M. A. Robb, J. R. Cheeseman, G. Scalmani, V. Barone, 
 G. A. Petersson, H. Nakatsuji, X. Li, M. Caricato, A. V. Marenich, 
 J. Bloino, B. G. Janesko, R. Gomperts, B. Mennucci, H. P. Hratchian, 
 J. V. Ortiz, A. F. Izmaylov, J. L. Sonnenberg, D. Williams-Young, 
 F. Ding, F. Lipparini, F. Egidi, J. Goings, B. Peng, A. Petrone, 
 T. Henderson, D. Ranasinghe, V. G. Zakrzewski, J. Gao, N. Rega, 
 G. Zheng, W. Liang, M. Hada, M. Ehara, K. Toyota, R. Fukuda, 
 J. Hasegawa, M. Ishida, T. Nakajima, Y. Honda, O. Kitao, H. Nakai, 
 T. Vreven, K. Throssell, J. A. Montgomery, Jr., J. E. Peralta, 
 F. Ogliaro, M. J. Bearpark, J. J. Heyd, E. N. Brothers, K. N. Kudin, 
 V. N. Staroverov, T. A. Keith, R. Kobayashi, J. Normand, 
 K. Raghavachari, A. P. Rendell, J. C. Burant, S. S. Iyengar, 
 J. Tomasi, M. Cossi, J. M. Millam, M. Klene, C. Adamo, R. Cammi, 
 J. W. Ochterski, R. L. Martin, K. Morokuma, O. Farkas, 
 J. B. Foresman, and D. J. Fox, Gaussian, Inc., Wallingford CT, 2019.
 
 ******************************************
 Gaussian 16:  ES64L-G16RevC.01  3-Jul-2019
                15-Aug-2025 
 ******************************************
 %chk=beta.chk
 %mem=10GB
 %nprocs=16
 Will use up to   16 processors via shared memory.
 ----------------------
 #P b3lyp/cc-pvdz polar
 ----------------------
 1/38=1,172=1/1;
 2/12=2,17=6,18=5,40=1/2;
 3/5=16,11=2,25=1,30=1,74=-5/1,2,3;
 4//1;
 5/5=2,38=5,98=1/2;
 8/6=4,10=90,11=11/1;
 10/6=1,13=10/2;
 6/7=2,8=2,9=2,10=2,28=1/1;
 99/5=1,9=1/99;
 Leave Link    1 at Fri Aug 15 15:59:13 2025, MaxMem=  1342177280 cpu:               0.4 elap:               0.0
 (Enter /opt/bwhpc/common/chem/gaussian/g16.C.01/x86_64-Intel-avx2-source/g16/l101.exe)
 --
 p3
 --
 Symbolic Z-matrix:
 Charge =  0 Multiplicity = 1
 C                    -7.11705   2.8813   -0.25747 
 C                    -5.85853   3.52461  -0.24193 
 C                    -4.67593   2.81656  -0.14011 
 C                    -4.68382   1.40795  -0.04952 
 C                    -3.4736    0.65431   0.06802 
 C                    -3.49007  -0.70998   0.15251 
 C                    -4.71449  -1.45861   0.11953 
 C                    -4.74016  -2.88957   0.19592 
 C                    -6.00178  -3.52758   0.17912 
 C                    -7.18898  -2.817     0.10499 
 C                    -7.19213  -1.41139   0.01929 
 C                    -8.40196  -0.65614  -0.08138 
 C                    -8.39261   0.70745  -0.17198 
 C                    -7.16374   1.45198  -0.16762 
 C                    -5.93302   0.71278  -0.06606 
 C                    -5.94293  -0.72022   0.02243 
 C                    -8.34046   3.66123  -0.36174 
 C                    -3.50876  -3.67144   0.27562 
 C                    -8.45359   5.00169  -0.45085 
 C                    -3.41798  -4.94585   0.73805 
 N                    -2.29387  -5.72975   0.72662 
 N                    -9.76341   5.62147  -0.54831 
 O                    -9.7697    6.84569  -0.62383 
 O                    -10.76671   4.91787  -0.55084 
 H                    -5.81454   4.6133   -0.31051 
 H                    -3.71938   3.34559  -0.1279 
 H                    -2.52383   1.19536   0.09618 
 H                    -2.54302  -1.23925   0.25908 
 H                    -6.04566  -4.6187    0.1911 
 H                    -8.1428   -3.35208   0.08824 
 H                    -9.35361  -1.19526  -0.0856 
 H                    -9.34487   1.23143  -0.24721 
 H                    -9.29797   3.13808  -0.37213 
 H                    -2.58336  -3.19903  -0.06586 
 H                    -7.65905   5.74455  -0.4612 
 H                    -4.29978  -5.45067   1.14619 
 H                    -2.24164  -6.51077   1.36809 
 H                    -1.40319  -5.30242   0.49821 
 
 ITRead=  0  0  0  0  0  0  0  0  0  0  0  0  0  0  0  0  0  0  0  0
 ITRead=  0  0  0  0  0  0  0  0  0  0  0  0  0  0  0  0  0  0
 MicOpt= -1 -1 -1 -1 -1 -1 -1 -1 -1 -1 -1 -1 -1 -1 -1 -1 -1 -1 -1 -1
 MicOpt= -1 -1 -1 -1 -1 -1 -1 -1 -1 -1 -1 -1 -1 -1 -1 -1 -1 -1
 NAtoms=     38 NQM=       38 NQMF=       0 NMMI=      0 NMMIF=      0
                NMic=       0 NMicF=      0.
                    Isotopes and Nuclear Properties:
 (Nuclear quadrupole moments (NQMom) in fm**2, nuclear magnetic moments (NMagM)
  in nuclear magnetons)

  Atom         1           2           3           4           5           6           7           8           9          10
 IAtWgt=          12          12          12          12          12          12          12          12          12          12
 AtmWgt=  12.0000000  12.0000000  12.0000000  12.0000000  12.0000000  12.0000000  12.0000000  12.0000000  12.0000000  12.0000000
 NucSpn=           0           0           0           0           0           0           0           0           0           0
 AtZEff=  -0.0000000  -0.0000000  -0.0000000  -0.0000000  -0.0000000  -0.0000000  -0.0000000  -0.0000000  -0.0000000  -0.0000000
 NQMom=    0.0000000   0.0000000   0.0000000   0.0000000   0.0000000   0.0000000   0.0000000   0.0000000   0.0000000   0.0000000
 NMagM=    0.0000000   0.0000000   0.0000000   0.0000000   0.0000000   0.0000000   0.0000000   0.0000000   0.0000000   0.0000000
 AtZNuc=   6.0000000   6.0000000   6.0000000   6.0000000   6.0000000   6.0000000   6.0000000   6.0000000   6.0000000   6.0000000

  Atom        11          12          13          14          15          16          17          18          19          20
 IAtWgt=          12          12          12          12          12          12          12          12          12          12
 AtmWgt=  12.0000000  12.0000000  12.0000000  12.0000000  12.0000000  12.0000000  12.0000000  12.0000000  12.0000000  12.0000000
 NucSpn=           0           0           0           0           0           0           0           0           0           0
 AtZEff=  -0.0000000  -0.0000000  -0.0000000  -0.0000000  -0.0000000  -0.0000000  -0.0000000  -0.0000000  -0.0000000  -0.0000000
 NQMom=    0.0000000   0.0000000   0.0000000   0.0000000   0.0000000   0.0000000   0.0000000   0.0000000   0.0000000   0.0000000
 NMagM=    0.0000000   0.0000000   0.0000000   0.0000000   0.0000000   0.0000000   0.0000000   0.0000000   0.0000000   0.0000000
 AtZNuc=   6.0000000   6.0000000   6.0000000   6.0000000   6.0000000   6.0000000   6.0000000   6.0000000   6.0000000   6.0000000

  Atom        21          22          23          24          25          26          27          28          29          30
 IAtWgt=          14          14          16          16           1           1           1           1           1           1
 AtmWgt=  14.0030740  14.0030740  15.9949146  15.9949146   1.0078250   1.0078250   1.0078250   1.0078250   1.0078250   1.0078250
 NucSpn=           2           2           0           0           1           1           1           1           1           1
 AtZEff=  -0.0000000  -0.0000000  -0.0000000  -0.0000000  -0.0000000  -0.0000000  -0.0000000  -0.0000000  -0.0000000  -0.0000000
 NQMom=    2.0440000   2.0440000   0.0000000   0.0000000   0.0000000   0.0000000   0.0000000   0.0000000   0.0000000   0.0000000
 NMagM=    0.4037610   0.4037610   0.0000000   0.0000000   2.7928460   2.7928460   2.7928460   2.7928460   2.7928460   2.7928460
 AtZNuc=   7.0000000   7.0000000   8.0000000   8.0000000   1.0000000   1.0000000   1.0000000   1.0000000   1.0000000   1.0000000

  Atom        31          32          33          34          35          36          37          38
 IAtWgt=           1           1           1           1           1           1           1           1
 AtmWgt=   1.0078250   1.0078250   1.0078250   1.0078250   1.0078250   1.0078250   1.0078250   1.0078250
 NucSpn=           1           1           1           1           1           1           1           1
 AtZEff=  -0.0000000  -0.0000000  -0.0000000  -0.0000000  -0.0000000  -0.0000000  -0.0000000  -0.0000000
 NQMom=    0.0000000   0.0000000   0.0000000   0.0000000   0.0000000   0.0000000   0.0000000   0.0000000
 NMagM=    2.7928460   2.7928460   2.7928460   2.7928460   2.7928460   2.7928460   2.7928460   2.7928460
 AtZNuc=   1.0000000   1.0000000   1.0000000   1.0000000   1.0000000   1.0000000   1.0000000   1.0000000
 Leave Link  101 at Fri Aug 15 15:59:13 2025, MaxMem=  1342177280 cpu:               4.0 elap:               0.3
 (Enter /opt/bwhpc/common/chem/gaussian/g16.C.01/x86_64-Intel-avx2-source/g16/l202.exe)
                          Input orientation:                          
 ---------------------------------------------------------------------
 Center     Atomic      Atomic             Coordinates (Angstroms)
 Number     Number       Type             X           Y           Z
 ---------------------------------------------------------------------
      1          6           0       -7.117052    2.881304   -0.257469
      2          6           0       -5.858534    3.524605   -0.241928
      3          6           0       -4.675932    2.816559   -0.140109
      4          6           0       -4.683820    1.407951   -0.049515
      5          6           0       -3.473602    0.654305    0.068019
      6          6           0       -3.490069   -0.709980    0.152510
      7          6           0       -4.714488   -1.458612    0.119528
      8          6           0       -4.740156   -2.889569    0.195921
      9          6           0       -6.001779   -3.527577    0.179121
     10          6           0       -7.188978   -2.817002    0.104987
     11          6           0       -7.192125   -1.411394    0.019286
     12          6           0       -8.401963   -0.656142   -0.081376
     13          6           0       -8.392606    0.707449   -0.171978
     14          6           0       -7.163741    1.451984   -0.167622
     15          6           0       -5.933020    0.712778   -0.066061
     16          6           0       -5.942931   -0.720223    0.022427
     17          6           0       -8.340456    3.661227   -0.361740
     18          6           0       -3.508762   -3.671440    0.275617
     19          6           0       -8.453587    5.001686   -0.450852
     20          6           0       -3.417984   -4.945850    0.738051
     21          7           0       -2.293871   -5.729754    0.726620
     22          7           0       -9.763415    5.621467   -0.548313
     23          8           0       -9.769705    6.845685   -0.623828
     24          8           0      -10.766709    4.917873   -0.550840
     25          1           0       -5.814540    4.613297   -0.310505
     26          1           0       -3.719381    3.345593   -0.127896
     27          1           0       -2.523825    1.195358    0.096184
     28          1           0       -2.543025   -1.239252    0.259084
     29          1           0       -6.045658   -4.618697    0.191105
     30          1           0       -8.142801   -3.352083    0.088242
     31          1           0       -9.353613   -1.195258   -0.085599
     32          1           0       -9.344866    1.231427   -0.247206
     33          1           0       -9.297974    3.138079   -0.372130
     34          1           0       -2.583363   -3.199030   -0.065855
     35          1           0       -7.659053    5.744552   -0.461199
     36          1           0       -4.299780   -5.450666    1.146189
     37          1           0       -2.241645   -6.510766    1.368092
     38          1           0       -1.403191   -5.302423    0.498207
 ---------------------------------------------------------------------
                    Distance matrix (angstroms):
                    1          2          3          4          5
     1  C    0.000000
     2  C    1.413488   0.000000
     3  C    2.444797   1.382116   0.000000
     4  C    2.852128   2.428416   1.411541   0.000000
     5  C    4.282545   3.744675   2.482792   1.430532   0.000000
     6  C    5.120587   4.867948   3.732074   2.439566   1.366998
     7  C    4.974868   5.125617   4.283222   2.871706   2.450892
     8  C    6.257649   6.525651   5.716375   4.304891   3.765576
     9  C    6.519831   7.066192   6.489055   5.113582   4.887961
    10  C    5.710274   6.488945   6.173531   4.914256   5.084817
    11  C    4.302265   5.119647   4.922624   3.774259   4.254045
    12  C    3.767696   4.896270   5.093762   4.252774   5.101797
    13  C    2.521902   3.789827   4.273527   3.776347   4.925142
    14  C    1.432902   2.450479   2.837608   2.483122   3.782716
    15  C    2.478119   2.818307   2.451867   1.429699   2.463764
    16  C    3.798407   4.253889   3.760390   2.473794   2.826481
    17  C    1.454603   2.488565   3.767137   4.306475   5.736945
    18  C    7.499493   7.587644   6.605244   5.223665   4.330867
    19  C    2.513909   2.993279   4.375159   5.223710   6.630927
    20  C    8.714270   8.869343   7.912559   6.526360   5.640370
    21  N    9.918761   9.964340   8.914309   7.567104   6.525468
    22  N    3.820513   4.442837   5.823798   6.618520   8.038303
    23  O    4.784047   5.145161   6.512631   7.467598   8.857356
    24  O    4.189710   5.111438   6.456143   7.040768   8.470561
    25  H    2.167753   1.091736   2.133947   3.408943   4.614855
    26  H    3.431694   2.149657   1.093168   2.165813   2.709579
    27  H    4.905631   4.081666   2.704753   2.175316   1.093438
    28  H    6.177988   5.825629   4.599810   3.418467   2.118500
    29  H    7.589408   8.156954   7.567621   6.183282   5.868149
    30  H    6.326673   7.253671   7.079794   5.885699   6.152478
    31  H    4.652967   5.875128   6.162658   5.346491   6.165956
    32  H    2.772247   4.172914   4.931841   4.668575   5.907975
    33  H    2.198977   3.463539   4.639017   4.938405   6.347139
    34  H    7.586931   7.480977   6.369590   5.063245   3.957100
    35  H    2.921209   2.866725   4.192285   5.275188   6.611254
    36  H    8.906683   9.214775   8.375145   6.972647   6.254254
    37  H   10.706215  10.788083   9.757020   8.407134   7.385537
    38  H   10.009628   9.915357   8.777024   7.489435   6.320940
                    6          7          8          9         10
     6  C    0.000000
     7  C    1.435528   0.000000
     8  C    2.513008   1.433224   0.000000
     9  C    3.774685   2.437474   1.413869   0.000000
    10  C    4.257197   2.822859   2.451584   1.385589   0.000000
    11  C    3.770272   2.480113   2.868511   2.433249   1.408222
    12  C    4.917754   3.779125   4.298129   3.751517   2.485030
    13  C    5.113635   4.278475   5.139482   4.875938   3.734593
    14  C    4.274626   3.814821   4.985479   5.125076   4.277755
    15  C    2.835493   2.496837   3.803743   4.247993   3.750471
    16  C    2.456330   1.436565   2.486530   2.812340   2.440478
    17  C    6.549668   6.292218   7.495737   7.578974   6.596300
    18  C    2.964077   2.524826   1.460823   2.499027   3.781953
    19  C    7.591026   7.486096   8.745272   8.896997   7.939777
    20  C    4.276757   3.771514   2.504063   2.999982   4.376433
    21  N    5.192169   4.946777   3.785842   4.347173   5.729976
    22  N    8.940539   8.721536   9.910840   9.918875   8.846597
    23  O    9.855181   9.750341  10.988336  11.065558  10.027903
    24  O    9.225882   8.816934   9.891063   9.724352   8.547429
    25  H    5.827077   6.185719   7.596299   8.157734   7.567764
    26  H    4.071717   4.912417   6.326459   7.248728   7.076010
    27  H    2.137080   3.441381   4.648516   5.865931   6.153272
    28  H    1.090129   2.186973   2.748622   4.147988   4.908964
    29  H    4.670181   3.429763   2.166620   1.092068   2.135580
    30  H    5.350958   3.916573   3.435623   2.150125   1.093787
    31  H    5.888407   4.651119   4.922796   4.092014   2.711460
    32  H    6.181219   5.367606   6.195346   5.831475   4.600181
    33  H    6.986742   6.509964   7.578187   7.456524   6.335494
    34  H    2.658039   2.757738   2.194550   3.442894   4.624589
    35  H    7.708310   7.803415   9.137823   9.440813   8.593122
    36  H    4.910920   4.142766   2.766976   2.744137   4.045708
    37  H    6.056841   5.761782   4.552979   4.944864   6.302019
    38  H    5.056195   5.087531   4.128993   4.939525   6.309301
                   11         12         13         14         15
    11  C    0.000000
    12  C    1.429771   0.000000
    13  C    2.442792   1.366630   0.000000
    14  C    2.869611   2.446391   1.436823   0.000000
    15  C    2.470776   2.823093   2.461871   1.439241   0.000000
    16  C    1.427660   2.462056   2.841997   2.498995   1.435764
    17  C    5.214914   4.326900   2.960326   2.510597   3.817922
    18  C    4.329050   5.758722   6.574720   6.309104   5.021467
    19  C    6.552855   5.670114   4.303714   3.787388   4.989594
    20  C    5.220454   6.626696   7.585170   7.468816   6.244363
    21  N    6.568215   7.981427   8.912891   8.723110   7.441637
    22  N    7.509649   6.440494   5.115498   4.928268   6.244976
    23  O    8.673919   7.644762   6.307021   6.007595   7.255605
    24  O    7.291249   6.073060   4.848460   5.014042   6.425137
    25  H    6.188974   5.874883   4.682015   3.440154   3.909967
    26  H    5.891565   6.159758   5.366636   3.930770   3.440311
    27  H    5.347344   6.165394   5.895130   4.654489   3.447001
    28  H    4.658462   5.897719   6.180054   5.364312   3.925329
    29  H    3.410381   4.618252   5.831622   6.183199   5.338861
    30  H    2.162132   2.713675   4.075527   4.909489   4.629259
    31  H    2.174798   1.093756   2.133375   3.436591   3.916815
    32  H    3.419036   2.116479   1.089500   2.193692   3.455792
    33  H    5.028470   3.909410   2.601483   2.727580   4.159168
    34  H    4.944045   6.350010   7.001367   6.528564   5.149994
    35  H    7.187242   6.454848   5.098446   4.331012   5.334236
    36  H    5.094240   6.428240   7.510737   7.587815   6.490382
    37  H    7.233957   8.621317   9.607746   9.486350   8.237878
    38  H    6.991512   8.420609   9.242275   8.902206   7.551185
                   16         17         18         19         20
    16  C    0.000000
    17  C    5.009272   0.000000
    18  C    3.833923   8.804515   0.000000
    19  C    6.266388   1.348173  10.010103   0.000000
    20  C    4.974274   9.976073   1.358752  11.212682   0.000000
    21  N    6.237542  11.222131   2.432287  12.429494   1.370499
    22  N    7.425555   2.429437  11.231993   1.452335  12.393039
    23  O    8.503223   3.500317  12.272666   2.272096  13.462517
    24  O    7.442149   2.738908  11.275509   2.316798  12.367619
    25  H    5.345443   2.699873   8.619571   2.671163   9.910612
    26  H    4.636554   4.637741   7.031780   5.025898   8.341986
    27  H    3.919843   6.334303   4.968704   7.067493   6.239066
    28  H    3.447428   7.616451   2.616956   8.624851   3.838467
    29  H    3.903474   8.609812   2.709295   9.937906   2.703859
    30  H    3.430809   7.030510   4.648808   8.376912   5.028543
    31  H    3.445298   4.968721   6.358005   6.272605   7.069443
    32  H    3.931259   2.631708   7.640127   3.879523   8.617273
    33  H    5.128204   1.091161   8.961255   2.047490  10.057668
    34  H    4.176000   8.960736   1.093681  10.092546   2.096243
    35  H    6.706137   2.194185  10.316429   1.087769  11.563285
    36  H    5.132239  10.081046   2.132897  11.360295   1.094980
    37  H    7.002909  11.985711   3.295582  13.207321   2.056621
    38  H    6.467779  11.367153   2.672655  12.521320   2.060112
                   21         22         23         24         25
    21  N    0.000000
    22  N   13.648068   0.000000
    23  O   14.691953   1.226561   0.000000
    24  O   13.667217   1.225418   2.171590   0.000000
    25  H   10.974946   4.082472   4.552478   4.967344   0.000000
    26  H    9.226277   6.471993   7.007354   7.232964   2.455628
    27  H    6.957550   8.509846   9.216691   9.067573   4.761985
    28  H    4.521645   9.992767  10.879828  10.305103   6.729010
    29  H    3.949321  10.919222  12.081585  10.667003   9.248499
    30  H    6.345930   9.140908  10.351248   8.699741   8.308254
    31  H    8.429787   6.844691   8.069672   6.291555   6.805508
    32  H    9.956048   4.420216   5.642892   3.962792   4.889198
    33  H   11.353553   2.532764   3.745962   2.314473   3.783435
    34  H    2.667655  11.383632  12.363298  11.536311   8.457707
    35  H   12.722256   2.109757   2.386167   3.216979   2.169027
    36  H    2.068236  12.462535  13.573993  12.337247  10.281041
    37  H    1.012025  14.402803  15.460732  14.386550  11.803730
    38  H    1.013951  13.795649  14.793041  13.900734  10.882808
                   26         27         28         29         30
    26  H    0.000000
    27  H    2.470440   0.000000
    28  H    4.749144   2.440129   0.000000
    29  H    8.303207   6.798202   4.867619   0.000000
    30  H    8.029460   7.228567   5.987549   2.452121   0.000000
    31  H    7.236414   7.238376   6.819447   4.768549   2.479552
    32  H    6.010825   6.829774   7.254352   6.730589   4.750373
    33  H    5.587792   7.062760   8.073958   8.429849   6.608220
    34  H    6.642776   4.397778   1.986943   3.750863   5.563679
    35  H    4.624620   6.883052   8.687121  10.508352   9.126044
    36  H    8.906982   6.958890   4.648564   2.156954   4.504677
    37  H   10.078170   7.815480   5.395330   4.408599   6.814613
    38  H    8.974682   6.605952   4.226791   4.702585   7.028104
                   31         32         33         34         35
    31  H    0.000000
    32  H    2.432076   0.000000
    33  H    4.343156   1.911316   0.000000
    34  H    7.060579   8.085775   9.237898   0.000000
    35  H    7.153571   4.822454   3.080211  10.291093   0.000000
    36  H    6.720641   8.487920  10.052550   3.079773  11.798360
    37  H    8.997107  10.630451  12.079750   3.624993  13.523589
    38  H    8.967655  10.311015  11.589960   2.476941  12.731533
                   36         37         38
    36  H    0.000000
    37  H    2.325721   0.000000
    38  H    2.971883   1.708742   0.000000
 Stoichiometry    C20H14N2O2
 Framework group  C1[X(C20H14N2O2)]
 Deg. of freedom   108
 Full point group                 C1      NOp   1
 Largest Abelian subgroup         C1      NOp   1
 Largest concise Abelian subgroup C1      NOp   1
                         Standard orientation:                         
 ---------------------------------------------------------------------
 Center     Atomic      Atomic             Coordinates (Angstroms)
 Number     Number       Type             X           Y           Z
 ---------------------------------------------------------------------
      1          6           0       -2.470076    0.512615    0.000680
      2          6           0       -2.388163    1.923727    0.001918
      3          6           0       -1.175296    2.586384   -0.007109
      4          6           0        0.039501    1.867681   -0.020649
      5          6           0        1.306855    2.531181   -0.018751
      6          6           0        2.478695    1.827461   -0.034670
      7          6           0        2.502935    0.392412   -0.062743
      8          6           0        3.726732   -0.353002   -0.091208
      9          6           0        3.638596   -1.764120   -0.093155
     10          6           0        2.423694   -2.429327   -0.056140
     11          6           0        1.206356   -1.721636   -0.037406
     12          6           0       -0.060692   -2.383912   -0.022400
     13          6           0       -1.236057   -1.686708   -0.012269
     14          6           0       -1.257074   -0.250038   -0.013230
     15          6           0        0.006774    0.438371   -0.027180
     16          6           0        1.241331   -0.294422   -0.044523
     17          6           0       -3.765478   -0.148905    0.014584
     18          6           0        5.025653    0.314304   -0.130125
     19          6           0       -4.982481    0.430940    0.030504
     20          6           0        6.207722   -0.249558    0.231784
     21          7           0        7.446314    0.323714    0.107219
     22          7           0       -6.183136   -0.386088    0.043593
     23          8           0       -7.245243    0.227210    0.059213
     24          8           0       -6.083605   -1.607447    0.038324
     25          1           0       -3.307857    2.511902    0.011957
     26          1           0       -1.147456    3.679189   -0.002805
     27          1           0        1.322368    3.624299    0.002664
     28          1           0        3.419756    2.377338   -0.014171
     29          1           0        4.555418   -2.353707   -0.159750
     30          1           0        2.402024   -3.522859   -0.065540
     31          1           0       -0.076691   -3.477547   -0.019731
     32          1           0       -2.172413   -2.243604   -0.001681
     33          1           0       -3.798702   -1.239558    0.012577
     34          1           0        5.055134    1.349832   -0.480768
     35          1           0       -5.221987    1.491999    0.036107
     36          1           0        6.233951   -1.263525    0.644291
     37          1           0        8.200759   -0.022994    0.685838
     38          1           0        7.507087    1.307059   -0.132439
 ---------------------------------------------------------------------
 Rotational constants (GHZ):           0.7473963           0.0998005           0.0881259
 Leave Link  202 at Fri Aug 15 15:59:13 2025, MaxMem=  1342177280 cpu:               0.0 elap:               0.0
 (Enter /opt/bwhpc/common/chem/gaussian/g16.C.01/x86_64-Intel-avx2-source/g16/l301.exe)
 Standard basis: CC-pVDZ (5D, 7F)
 Ernie: Thresh=  0.10000D-02 Tol=  0.10000D-05 Strict=F.
 Ernie:  48 primitive shells out of 598 were deleted.
 There are   430 symmetry adapted cartesian basis functions of A   symmetry.
 There are   406 symmetry adapted basis functions of A   symmetry.
   406 basis functions,   890 primitive gaussians,   430 cartesian basis functions
    82 alpha electrons       82 beta electrons
       nuclear repulsion energy      1790.7379082885 Hartrees.
 IExCor=  402 DFT=T Ex+Corr=B3LYP ExCW=0 ScaHFX=  0.200000
 ScaDFX=  0.800000  0.720000  1.000000  0.810000 ScalE2=  1.000000  1.000000
 IRadAn=      5 IRanWt=     -1 IRanGd=            0 ICorTp=0 IEmpDi=  4
 NAtoms=   38 NActive=   38 NUniq=   38 SFac= 1.00D+00 NAtFMM=   60 NAOKFM=F Big=F
 Integral buffers will be    131072 words long.
 Raffenetti 2 integral format.
 Two-electron integral symmetry is turned on.
 Leave Link  301 at Fri Aug 15 15:59:13 2025, MaxMem=  1342177280 cpu:               0.8 elap:               0.1
 (Enter /opt/bwhpc/common/chem/gaussian/g16.C.01/x86_64-Intel-avx2-source/g16/l302.exe)
 NPDir=0 NMtPBC=     1 NCelOv=     1 NCel=       1 NClECP=     1 NCelD=      1
         NCelK=      1 NCelE2=     1 NClLst=     1 CellRange=     0.0.
 One-electron integrals computed using PRISM.
 One-electron integral symmetry used in STVInt
 NBasis=   406 RedAO= T EigKep=  6.94D-05  NBF=   406
 NBsUse=   406 1.00D-06 EigRej= -1.00D+00 NBFU=   406
 Precomputing XC quadrature grid using
 IXCGrd= 4 IRadAn=           5 IRanWt=          -1 IRanGd=           0 AccXCQ= 0.00D+00.
 Generated NRdTot=       0 NPtTot=           0 NUsed=           0 NTot=          32
 NSgBfM=   422   422   422   422   422 MxSgAt=    38 MxSgA2=    38.
 Leave Link  302 at Fri Aug 15 15:59:14 2025, MaxMem=  1342177280 cpu:               9.9 elap:               0.6
 (Enter /opt/bwhpc/common/chem/gaussian/g16.C.01/x86_64-Intel-avx2-source/g16/l303.exe)
 DipDrv:  MaxL=1.
 Leave Link  303 at Fri Aug 15 15:59:14 2025, MaxMem=  1342177280 cpu:               1.2 elap:               0.1
 (Enter /opt/bwhpc/common/chem/gaussian/g16.C.01/x86_64-Intel-avx2-source/g16/l401.exe)
 ExpMin= 1.22D-01 ExpMax= 1.17D+04 ExpMxC= 4.01D+02 IAcc=3 IRadAn=         5 AccDes= 0.00D+00
 Harris functional with IExCor=  402 and IRadAn=       5 diagonalized for initial guess.
 HarFok:  IExCor=  402 AccDes= 0.00D+00 IRadAn=         5 IDoV= 1 UseB2=F ITyADJ=14
 ICtDFT=  3500011 ScaDFX=  1.000000  1.000000  1.000000  1.000000
 FoFCou: FMM=F IPFlag=           0 FMFlag=      100000 FMFlg1=           0
         NFxFlg=           0 DoJE=T BraDBF=F KetDBF=T FulRan=T
         wScrn=  0.000000 ICntrl=       500 IOpCl=  0 I1Cent=   200000004 NGrid=           0
         NMat0=    1 NMatS0=      1 NMatT0=    0 NMatD0=    1 NMtDS0=    0 NMtDT0=    0
 Petite list used in FoFCou.
 Harris En= -1030.46844382716    
 JPrj=0 DoOrth=F DoCkMO=F.
 Leave Link  401 at Fri Aug 15 15:59:16 2025, MaxMem=  1342177280 cpu:              31.2 elap:               2.0
 (Enter /opt/bwhpc/common/chem/gaussian/g16.C.01/x86_64-Intel-avx2-source/g16/l502.exe)
 Integral symmetry usage will be decided dynamically.
 Closed shell SCF:
 Using DIIS extrapolation, IDIIS=  1040.
 NGot=  1342177280 LenX=  1341795286 LenY=  1341609945
 Requested convergence on RMS density matrix=1.00D-08 within 128 cycles.
 Requested convergence on MAX density matrix=1.00D-06.
 Requested convergence on             energy=1.00D-06.
 No special actions if energy rises.
 Fock matrices will be formed incrementally for  20 cycles.
 Integral accuracy reduced to 1.0D-05 until final iterations.

 Cycle   1  Pass 0  IDiag  1:
 FoFJK:  IHMeth= 1 ICntrl=       0 DoSepK=F KAlg= 0 I1Cent=           0 FoldK=F
 IRaf= 750000000 NMat=       1 IRICut=       1 DoRegI=T DoRafI=F ISym2E= 0 IDoP0=0 IntGTp=1.
 FoFCou: FMM=F IPFlag=           0 FMFlag=      100000 FMFlg1=           0
         NFxFlg=           0 DoJE=F BraDBF=F KetDBF=F FulRan=T
         wScrn=  0.000000 ICntrl=         0 IOpCl=  0 I1Cent=           0 NGrid=           0
         NMat0=    1 NMatS0=      1 NMatT0=    0 NMatD0=    1 NMtDS0=    0 NMtDT0=    0
 Symmetry not used in FoFCou.
 E= -1029.98447473218    
 DIIS: error= 5.15D-02 at cycle   1 NSaved=   1.
 NSaved= 1 IEnMin= 1 EnMin= -1029.98447473218     IErMin= 1 ErrMin= 5.15D-02
 ErrMax= 5.15D-02  0.00D+00 EMaxC= 1.00D-01 BMatC= 5.08D-01 BMatP= 5.08D-01
 IDIUse=3 WtCom= 4.85D-01 WtEn= 5.15D-01
 Coeff-Com:  0.100D+01
 Coeff-En:   0.100D+01
 Coeff:      0.100D+01
 Gap=     0.075 Goal=   None    Shift=    0.000
 GapD=    0.075 DampG=0.500 DampE=0.500 DampFc=0.2500 IDamp=-1.
 Damping current iteration by 2.50D-01
 RMSDP=7.67D-03 MaxDP=2.66D-01              OVMax= 4.07D-01

 Cycle   2  Pass 0  IDiag  1:
 RMSU=  1.64D-03    CP:  9.50D-01
 E= -1030.16361199547     Delta-E=       -0.179137263290 Rises=F Damp=T
 DIIS: error= 1.87D-02 at cycle   2 NSaved=   2.
 NSaved= 2 IEnMin= 2 EnMin= -1030.16361199547     IErMin= 2 ErrMin= 1.87D-02
 ErrMax= 1.87D-02  0.00D+00 EMaxC= 1.00D-01 BMatC= 1.11D-01 BMatP= 5.08D-01
 IDIUse=3 WtCom= 8.13D-01 WtEn= 1.87D-01
 Coeff-Com: -0.640D+00 0.164D+01
 Coeff-En:   0.000D+00 0.100D+01
 Coeff:     -0.521D+00 0.152D+01
 Gap=     0.120 Goal=   None    Shift=    0.000
 RMSDP=4.28D-03 MaxDP=1.43D-01 DE=-1.79D-01 OVMax= 4.71D-01

 Cycle   3  Pass 0  IDiag  1:
 RMSU=  1.97D-03    CP:  8.28D-01  2.77D+00
 E= -1030.45244489417     Delta-E=       -0.288832898701 Rises=F Damp=F
 DIIS: error= 1.46D-02 at cycle   3 NSaved=   3.
 NSaved= 3 IEnMin= 3 EnMin= -1030.45244489417     IErMin= 3 ErrMin= 1.46D-02
 ErrMax= 1.46D-02  0.00D+00 EMaxC= 1.00D-01 BMatC= 3.94D-02 BMatP= 1.11D-01
 IDIUse=3 WtCom= 8.54D-01 WtEn= 1.46D-01
 Coeff-Com: -0.354D+00 0.852D+00 0.502D+00
 Coeff-En:   0.000D+00 0.000D+00 0.100D+01
 Coeff:     -0.303D+00 0.728D+00 0.575D+00
 Gap=     0.105 Goal=   None    Shift=    0.000
 RMSDP=9.06D-04 MaxDP=6.36D-02 DE=-2.89D-01 OVMax= 1.30D-01

 Cycle   4  Pass 0  IDiag  1:
 RMSU=  6.52D-04    CP:  8.40D-01  2.66D+00  7.21D-01
 E= -1030.48456992748     Delta-E=       -0.032125033305 Rises=F Damp=F
 DIIS: error= 6.58D-03 at cycle   4 NSaved=   4.
 NSaved= 4 IEnMin= 4 EnMin= -1030.48456992748     IErMin= 4 ErrMin= 6.58D-03
 ErrMax= 6.58D-03  0.00D+00 EMaxC= 1.00D-01 BMatC= 1.25D-02 BMatP= 3.94D-02
 IDIUse=3 WtCom= 9.34D-01 WtEn= 6.58D-02
 Coeff-Com: -0.122D+00 0.306D+00 0.361D+00 0.455D+00
 Coeff-En:   0.000D+00 0.000D+00 0.234D+00 0.766D+00
 Coeff:     -0.114D+00 0.286D+00 0.352D+00 0.476D+00
 Gap=     0.093 Goal=   None    Shift=    0.000
 RMSDP=3.83D-04 MaxDP=2.37D-02 DE=-3.21D-02 OVMax= 5.52D-02

 Cycle   5  Pass 0  IDiag  1:
 RMSU=  2.50D-04    CP:  8.40D-01  2.61D+00  8.00D-01  6.43D-01
 E= -1030.49462119031     Delta-E=       -0.010051262831 Rises=F Damp=F
 DIIS: error= 4.44D-03 at cycle   5 NSaved=   5.
 NSaved= 5 IEnMin= 5 EnMin= -1030.49462119031     IErMin= 5 ErrMin= 4.44D-03
 ErrMax= 4.44D-03  0.00D+00 EMaxC= 1.00D-01 BMatC= 3.06D-03 BMatP= 1.25D-02
 IDIUse=3 WtCom= 9.56D-01 WtEn= 4.44D-02
 Coeff-Com: -0.221D-01 0.633D-01 0.171D+00 0.361D+00 0.428D+00
 Coeff-En:   0.000D+00 0.000D+00 0.000D+00 0.199D+00 0.801D+00
 Coeff:     -0.211D-01 0.605D-01 0.163D+00 0.353D+00 0.444D+00
 Gap=     0.093 Goal=   None    Shift=    0.000
 RMSDP=1.68D-04 MaxDP=1.47D-02 DE=-1.01D-02 OVMax= 3.28D-02

 Cycle   6  Pass 0  IDiag  1:
 RMSU=  1.08D-04    CP:  8.40D-01  2.62D+00  7.91D-01  7.04D-01  5.15D-01
 E= -1030.49697979411     Delta-E=       -0.002358603803 Rises=F Damp=F
 DIIS: error= 1.85D-03 at cycle   6 NSaved=   6.
 NSaved= 6 IEnMin= 6 EnMin= -1030.49697979411     IErMin= 6 ErrMin= 1.85D-03
 ErrMax= 1.85D-03  0.00D+00 EMaxC= 1.00D-01 BMatC= 5.16D-04 BMatP= 3.06D-03
 IDIUse=3 WtCom= 9.81D-01 WtEn= 1.85D-02
 Coeff-Com: -0.382D-02 0.132D-01 0.729D-01 0.182D+00 0.323D+00 0.413D+00
 Coeff-En:   0.000D+00 0.000D+00 0.000D+00 0.000D+00 0.153D+00 0.847D+00
 Coeff:     -0.375D-02 0.129D-01 0.716D-01 0.179D+00 0.320D+00 0.421D+00
 Gap=     0.094 Goal=   None    Shift=    0.000
 RMSDP=6.07D-05 MaxDP=6.07D-03 DE=-2.36D-03 OVMax= 1.19D-02

 Cycle   7  Pass 0  IDiag  1:
 RMSU=  4.34D-05    CP:  8.40D-01  2.62D+00  7.87D-01  7.03D-01  5.78D-01
                    CP:  6.46D-01
 E= -1030.49736737875     Delta-E=       -0.000387584637 Rises=F Damp=F
 DIIS: error= 2.86D-04 at cycle   7 NSaved=   7.
 NSaved= 7 IEnMin= 7 EnMin= -1030.49736737875     IErMin= 7 ErrMin= 2.86D-04
 ErrMax= 2.86D-04  0.00D+00 EMaxC= 1.00D-01 BMatC= 4.15D-05 BMatP= 5.16D-04
 IDIUse=3 WtCom= 9.97D-01 WtEn= 2.86D-03
 Coeff-Com:  0.659D-03-0.501D-03 0.190D-01 0.504D-01 0.135D+00 0.273D+00
 Coeff-Com:  0.522D+00
 Coeff-En:   0.000D+00 0.000D+00 0.000D+00 0.000D+00 0.000D+00 0.662D-01
 Coeff-En:   0.934D+00
 Coeff:      0.657D-03-0.500D-03 0.189D-01 0.503D-01 0.135D+00 0.273D+00
 Coeff:      0.523D+00
 Gap=     0.095 Goal=   None    Shift=    0.000
 RMSDP=2.49D-05 MaxDP=9.23D-04 DE=-3.88D-04 OVMax= 4.12D-03

 Cycle   8  Pass 0  IDiag  1:
 RMSU=  1.66D-05    CP:  8.40D-01  2.62D+00  7.91D-01  6.94D-01  5.93D-01
                    CP:  6.86D-01  6.79D-01
 E= -1030.49740688353     Delta-E=       -0.000039504782 Rises=F Damp=F
 DIIS: error= 1.12D-04 at cycle   8 NSaved=   8.
 NSaved= 8 IEnMin= 8 EnMin= -1030.49740688353     IErMin= 8 ErrMin= 1.12D-04
 ErrMax= 1.12D-04  0.00D+00 EMaxC= 1.00D-01 BMatC= 9.17D-06 BMatP= 4.15D-05
 IDIUse=3 WtCom= 9.99D-01 WtEn= 1.12D-03
 Coeff-Com:  0.170D-02-0.372D-02 0.206D-02 0.771D-02 0.501D-01 0.138D+00
 Coeff-Com:  0.381D+00 0.423D+00
 Coeff-En:   0.000D+00 0.000D+00 0.000D+00 0.000D+00 0.000D+00 0.000D+00
 Coeff-En:   0.160D+00 0.840D+00
 Coeff:      0.170D-02-0.371D-02 0.206D-02 0.770D-02 0.501D-01 0.138D+00
 Coeff:      0.380D+00 0.424D+00
 Gap=     0.095 Goal=   None    Shift=    0.000
 RMSDP=9.09D-06 MaxDP=4.20D-04 DE=-3.95D-05 OVMax= 1.23D-03

 Initial convergence to 1.0D-05 achieved.  Increase integral accuracy.
 Cycle   9  Pass 1  IDiag  1:
 E= -1030.49735136712     Delta-E=        0.000055516405 Rises=F Damp=F
 DIIS: error= 2.40D-04 at cycle   1 NSaved=   1.
 NSaved= 1 IEnMin= 1 EnMin= -1030.49735136712     IErMin= 1 ErrMin= 2.40D-04
 ErrMax= 2.40D-04  0.00D+00 EMaxC= 1.00D-01 BMatC= 1.39D-05 BMatP= 1.39D-05
 IDIUse=3 WtCom= 9.98D-01 WtEn= 2.40D-03
 Coeff-Com:  0.100D+01
 Coeff-En:   0.100D+01
 Coeff:      0.100D+01
 Gap=     0.095 Goal=   None    Shift=    0.000
 RMSDP=9.09D-06 MaxDP=4.20D-04 DE= 5.55D-05 OVMax= 6.60D-04

 Cycle  10  Pass 1  IDiag  1:
 RMSU=  4.18D-04    CP:  9.99D-01
 E= -1030.49736070088     Delta-E=       -0.000009333762 Rises=F Damp=F
 DIIS: error= 5.31D-05 at cycle   2 NSaved=   2.
 NSaved= 2 IEnMin= 2 EnMin= -1030.49736070088     IErMin= 2 ErrMin= 5.31D-05
 ErrMax= 5.31D-05  0.00D+00 EMaxC= 1.00D-01 BMatC= 1.59D-06 BMatP= 1.39D-05
 IDIUse=1 WtCom= 1.00D+00 WtEn= 0.00D+00
 Coeff-Com:  0.131D+00 0.869D+00
 Coeff:      0.131D+00 0.869D+00
 Gap=     0.095 Goal=   None    Shift=    0.000
 RMSDP=1.09D-05 MaxDP=4.11D-04 DE=-9.33D-06 OVMax= 1.57D-03

 Cycle  11  Pass 1  IDiag  1:
 RMSU=  1.05D-05    CP:  9.99D-01  1.01D+00
 E= -1030.49735505066     Delta-E=        0.000005650225 Rises=F Damp=F
 DIIS: error= 1.17D-04 at cycle   3 NSaved=   3.
 NSaved= 3 IEnMin= 2 EnMin= -1030.49736070088     IErMin= 2 ErrMin= 5.31D-05
 ErrMax= 1.17D-04  0.00D+00 EMaxC= 1.00D-01 BMatC= 6.19D-06 BMatP= 1.59D-06
 IDIUse=3 WtCom= 4.80D-01 WtEn= 5.20D-01
 Coeff-Com: -0.223D-02 0.666D+00 0.336D+00
 Coeff-En:   0.000D+00 0.736D+00 0.264D+00
 Coeff:     -0.107D-02 0.702D+00 0.299D+00
 Gap=     0.095 Goal=   None    Shift=    0.000
 RMSDP=6.34D-06 MaxDP=2.46D-04 DE= 5.65D-06 OVMax= 1.03D-03

 Cycle  12  Pass 1  IDiag  1:
 RMSU=  1.10D-06    CP:  9.99D-01  1.01D+00  4.11D-01
 E= -1030.49736243955     Delta-E=       -0.000007388892 Rises=F Damp=F
 DIIS: error= 1.24D-05 at cycle   4 NSaved=   4.
 NSaved= 4 IEnMin= 4 EnMin= -1030.49736243955     IErMin= 4 ErrMin= 1.24D-05
 ErrMax= 1.24D-05  0.00D+00 EMaxC= 1.00D-01 BMatC= 1.32D-07 BMatP= 1.59D-06
 IDIUse=1 WtCom= 1.00D+00 WtEn= 0.00D+00
 Coeff-Com: -0.307D-02 0.447D+00 0.182D+00 0.374D+00
 Coeff:     -0.307D-02 0.447D+00 0.182D+00 0.374D+00
 Gap=     0.095 Goal=   None    Shift=    0.000
 RMSDP=1.03D-06 MaxDP=5.17D-05 DE=-7.39D-06 OVMax= 1.16D-04

 Cycle  13  Pass 1  IDiag  1:
 RMSU=  4.38D-07    CP:  9.99D-01  1.01D+00  3.33D-01  6.10D-01
 E= -1030.49736257755     Delta-E=       -0.000000137999 Rises=F Damp=F
 DIIS: error= 4.66D-06 at cycle   5 NSaved=   5.
 NSaved= 5 IEnMin= 5 EnMin= -1030.49736257755     IErMin= 5 ErrMin= 4.66D-06
 ErrMax= 4.66D-06  0.00D+00 EMaxC= 1.00D-01 BMatC= 3.42D-09 BMatP= 1.32D-07
 IDIUse=1 WtCom= 1.00D+00 WtEn= 0.00D+00
 Coeff-Com: -0.201D-02 0.271D+00 0.106D+00 0.260D+00 0.365D+00
 Coeff:     -0.201D-02 0.271D+00 0.106D+00 0.260D+00 0.365D+00
 Gap=     0.095 Goal=   None    Shift=    0.000
 RMSDP=1.62D-07 MaxDP=1.48D-05 DE=-1.38D-07 OVMax= 3.02D-05

 Cycle  14  Pass 1  IDiag  1:
 RMSU=  1.43D-07    CP:  9.99D-01  1.01D+00  3.37D-01  6.19D-01  8.56D-01
 E= -1030.49736258036     Delta-E=       -0.000000002804 Rises=F Damp=F
 DIIS: error= 1.11D-06 at cycle   6 NSaved=   6.
 NSaved= 6 IEnMin= 6 EnMin= -1030.49736258036     IErMin= 6 ErrMin= 1.11D-06
 ErrMax= 1.11D-06  0.00D+00 EMaxC= 1.00D-01 BMatC= 2.82D-10 BMatP= 3.42D-09
 IDIUse=1 WtCom= 1.00D+00 WtEn= 0.00D+00
 Coeff-Com: -0.990D-03 0.127D+00 0.495D-01 0.129D+00 0.243D+00 0.453D+00
 Coeff:     -0.990D-03 0.127D+00 0.495D-01 0.129D+00 0.243D+00 0.453D+00
 Gap=     0.095 Goal=   None    Shift=    0.000
 RMSDP=5.30D-08 MaxDP=3.85D-06 DE=-2.80D-09 OVMax= 7.60D-06

 Cycle  15  Pass 1  IDiag  1:
 RMSU=  4.13D-08    CP:  9.99D-01  1.01D+00  3.36D-01  6.32D-01  8.70D-01
                    CP:  7.99D-01
 E= -1030.49736258057     Delta-E=       -0.000000000211 Rises=F Damp=F
 DIIS: error= 2.75D-07 at cycle   7 NSaved=   7.
 NSaved= 7 IEnMin= 7 EnMin= -1030.49736258057     IErMin= 7 ErrMin= 2.75D-07
 ErrMax= 2.75D-07  0.00D+00 EMaxC= 1.00D-01 BMatC= 3.02D-11 BMatP= 2.82D-10
 IDIUse=1 WtCom= 1.00D+00 WtEn= 0.00D+00
 Coeff-Com: -0.197D-03 0.236D-01 0.880D-02 0.270D-01 0.692D-01 0.264D+00
 Coeff-Com:  0.607D+00
 Coeff:     -0.197D-03 0.236D-01 0.880D-02 0.270D-01 0.692D-01 0.264D+00
 Coeff:      0.607D+00
 Gap=     0.095 Goal=   None    Shift=    0.000
 RMSDP=2.19D-08 MaxDP=8.60D-07 DE=-2.11D-10 OVMax= 2.86D-06

 Cycle  16  Pass 1  IDiag  1:
 RMSU=  1.61D-08    CP:  9.99D-01  1.01D+00  3.36D-01  6.32D-01  8.82D-01
                    CP:  8.41D-01  7.19D-01
 E= -1030.49736258057     Delta-E=       -0.000000000004 Rises=F Damp=F
 DIIS: error= 1.07D-07 at cycle   8 NSaved=   8.
 NSaved= 8 IEnMin= 8 EnMin= -1030.49736258057     IErMin= 8 ErrMin= 1.07D-07
 ErrMax= 1.07D-07  0.00D+00 EMaxC= 1.00D-01 BMatC= 6.76D-12 BMatP= 3.02D-11
 IDIUse=1 WtCom= 1.00D+00 WtEn= 0.00D+00
 Coeff-Com:  0.273D-04-0.450D-02-0.197D-02-0.295D-02 0.266D-02 0.821D-01
 Coeff-Com:  0.380D+00 0.545D+00
 Coeff:      0.273D-04-0.450D-02-0.197D-02-0.295D-02 0.266D-02 0.821D-01
 Coeff:      0.380D+00 0.545D+00
 Gap=     0.095 Goal=   None    Shift=    0.000
 RMSDP=9.66D-09 MaxDP=3.95D-07 DE=-3.64D-12 OVMax= 1.52D-06

 SCF Done:  E(RB3LYP) =  -1030.49736258     A.U. after   16 cycles
            NFock= 16  Conv=0.97D-08     -V/T= 2.0065
 KE= 1.023847397972D+03 PE=-5.978006675450D+03 EE= 2.132924006609D+03
 Leave Link  502 at Fri Aug 15 16:00:17 2025, MaxMem=  1342177280 cpu:             969.9 elap:              60.8
 (Enter /opt/bwhpc/common/chem/gaussian/g16.C.01/x86_64-Intel-avx2-source/g16/l801.exe)
 DoSCS=F DFT=T ScalE2(SS,OS)=  1.000000  1.000000
 Range of M.O.s used for correlation:     1   406
 NBasis=   406 NAE=    82 NBE=    82 NFC=     0 NFV=     0
 NROrb=    406 NOA=    82 NOB=    82 NVA=   324 NVB=   324

 **** Warning!!: The largest alpha MO coefficient is  0.21429609D+02


 **** Warning!!: The smallest alpha delta epsilon is  0.94606927D-01

 Leave Link  801 at Fri Aug 15 16:00:17 2025, MaxMem=  1342177280 cpu:               0.5 elap:               0.0
 (Enter /opt/bwhpc/common/chem/gaussian/g16.C.01/x86_64-Intel-avx2-source/g16/l1002.exe)
 Minotr:  Closed shell wavefunction.
          Direct CPHF calculation.
          Differentiating once with respect to electric field.
                with respect to dipole field.
          Electric field/nuclear overlap derivatives assumed to be zero.
          Requested convergence is 1.0D-08 RMS, and 1.0D-07 maximum.
          Secondary convergence is 1.0D-12 RMS, and 1.0D-12 maximum.
          NewPWx=F KeepS1=T KeepF1=T KeepIn=T MapXYZ=F SortEE=F KeepMc=T.
        11542 words used for storage of precomputed grid.
 Two-electron integral symmetry used by symmetrizing perturbed Fock matrices.
          MDV=    1342177280 using IRadAn=       1.
          Solving linear equations simultaneously, MaxMat=     384.
          There are     3 degrees of freedom in the 1st order CPHF.  IDoFFX=0 NUNeed=     3.
      3 vectors produced by pass  0 Test12= 8.86D-13 3.33D-08 XBig12= 2.15D+03 3.97D+01.
 AX will form     3 AO Fock derivatives at one time.
 FoFJK:  IHMeth= 1 ICntrl=       0 DoSepK=F KAlg= 0 I1Cent=           0 FoldK=F
 IRaf= 720000000 NMat=       3 IRICut=       1 DoRegI=T DoRafI=F ISym2E=-1 IDoP0=0 IntGTp=1.
 FoFCou: FMM=F IPFlag=           0 FMFlag=      100000 FMFlg1=           0
         NFxFlg=           0 DoJE=F BraDBF=F KetDBF=F FulRan=T
         wScrn=  0.000000 ICntrl=         0 IOpCl=  0 I1Cent=           0 NGrid=           0
         NMat0=    3 NMatS0=      3 NMatT0=    0 NMatD0=    3 NMtDS0=    0 NMtDT0=    0
 Petite list used in FoFCou.
      3 vectors produced by pass  1 Test12= 8.86D-13 3.33D-08 XBig12= 5.27D+02 6.82D+00.
      3 vectors produced by pass  2 Test12= 8.86D-13 3.33D-08 XBig12= 1.71D+02 4.65D+00.
      3 vectors produced by pass  3 Test12= 8.86D-13 3.33D-08 XBig12= 1.05D+02 2.92D+00.
      3 vectors produced by pass  4 Test12= 8.86D-13 3.33D-08 XBig12= 3.70D+01 1.58D+00.
      3 vectors produced by pass  5 Test12= 8.86D-13 3.33D-08 XBig12= 1.04D+01 7.16D-01.
      3 vectors produced by pass  6 Test12= 8.86D-13 3.33D-08 XBig12= 3.52D+00 4.44D-01.
      3 vectors produced by pass  7 Test12= 8.86D-13 3.33D-08 XBig12= 9.82D-01 2.94D-01.
      3 vectors produced by pass  8 Test12= 8.86D-13 3.33D-08 XBig12= 1.67D-01 9.52D-02.
      3 vectors produced by pass  9 Test12= 8.86D-13 3.33D-08 XBig12= 4.83D-02 3.61D-02.
      3 vectors produced by pass 10 Test12= 8.86D-13 3.33D-08 XBig12= 1.42D-02 2.26D-02.
      3 vectors produced by pass 11 Test12= 8.86D-13 3.33D-08 XBig12= 3.64D-03 1.32D-02.
      3 vectors produced by pass 12 Test12= 8.86D-13 3.33D-08 XBig12= 8.92D-04 4.33D-03.
      3 vectors produced by pass 13 Test12= 8.86D-13 3.33D-08 XBig12= 1.64D-04 2.85D-03.
      3 vectors produced by pass 14 Test12= 8.86D-13 3.33D-08 XBig12= 4.88D-05 1.73D-03.
      3 vectors produced by pass 15 Test12= 8.86D-13 3.33D-08 XBig12= 7.17D-06 6.38D-04.
      3 vectors produced by pass 16 Test12= 8.86D-13 3.33D-08 XBig12= 1.02D-06 2.93D-04.
      3 vectors produced by pass 17 Test12= 8.86D-13 3.33D-08 XBig12= 2.50D-07 9.69D-05.
      3 vectors produced by pass 18 Test12= 8.86D-13 3.33D-08 XBig12= 2.90D-08 2.67D-05.
      3 vectors produced by pass 19 Test12= 8.86D-13 3.33D-08 XBig12= 2.06D-09 6.46D-06.
      3 vectors produced by pass 20 Test12= 8.86D-13 3.33D-08 XBig12= 8.78D-11 1.30D-06.
      1 vectors produced by pass 21 Test12= 8.86D-13 3.33D-08 XBig12= 3.11D-12 1.83D-07.
      1 vectors produced by pass 22 Test12= 8.86D-13 3.33D-08 XBig12= 1.48D-13 4.22D-08.
 InvSVY:  IOpt=1 It=  1 EMax= 1.07D-14
 Solved reduced A of dimension    65 with     3 vectors.
 FullF1:  Do perturbations      1 to       3.
 SCF Polarizability for W=    0.000000:
                1             2             3 
      1  0.663670D+03
      2 -0.230556D+02  0.265639D+03
      3  0.340209D+01 -0.264215D+01  0.804472D+02
 Isotropic polarizability for W=    0.000000      336.59 Bohr**3.
 SCF Static Hyperpolarizability:
 K=  1 block:
                1 
      1 -0.167229D+05
 K=  2 block:
                1             2 
      1 -0.152556D+04
      2 -0.400429D+02  0.119903D+03
 K=  3 block:
                1             2             3 
      1  0.133949D+03
      2 -0.168161D+02 -0.418258D+01
      3  0.450111D+02  0.106332D+01  0.656226D+01
 End of Minotr F.D. properties file   721 does not exist.
 End of Minotr F.D. properties file   722 does not exist.
 End of Minotr F.D. properties file   788 does not exist.
 Leave Link 1002 at Fri Aug 15 16:02:05 2025, MaxMem=  1342177280 cpu:            1724.5 elap:             108.2
 (Enter /opt/bwhpc/common/chem/gaussian/g16.C.01/x86_64-Intel-avx2-source/g16/l601.exe)
 Copying SCF densities to generalized density rwf, IOpCl= 0 IROHF=0.

 **********************************************************************

            Population analysis using the SCF Density.

 **********************************************************************

 Orbital symmetries:
       Occupied  (A) (A) (A) (A) (A) (A) (A) (A) (A) (A) (A) (A)
                 (A) (A) (A) (A) (A) (A) (A) (A) (A) (A) (A) (A)
                 (A) (A) (A) (A) (A) (A) (A) (A) (A) (A) (A) (A)
                 (A) (A) (A) (A) (A) (A) (A) (A) (A) (A) (A) (A)
                 (A) (A) (A) (A) (A) (A) (A) (A) (A) (A) (A) (A)
                 (A) (A) (A) (A) (A) (A) (A) (A) (A) (A) (A) (A)
                 (A) (A) (A) (A) (A) (A) (A) (A) (A) (A)
       Virtual   (A) (A) (A) (A) (A) (A) (A) (A) (A) (A) (A) (A)
                 (A) (A) (A) (A) (A) (A) (A) (A) (A) (A) (A) (A)
                 (A) (A) (A) (A) (A) (A) (A) (A) (A) (A) (A) (A)
                 (A) (A) (A) (A) (A) (A) (A) (A) (A) (A) (A) (A)
                 (A) (A) (A) (A) (A) (A) (A) (A) (A) (A) (A) (A)
                 (A) (A) (A) (A) (A) (A) (A) (A) (A) (A) (A) (A)
                 (A) (A) (A) (A) (A) (A) (A) (A) (A) (A) (A) (A)
                 (A) (A) (A) (A) (A) (A) (A) (A) (A) (A) (A) (A)
                 (A) (A) (A) (A) (A) (A) (A) (A) (A) (A) (A) (A)
                 (A) (A) (A) (A) (A) (A) (A) (A) (A) (A) (A) (A)
                 (A) (A) (A) (A) (A) (A) (A) (A) (A) (A) (A) (A)
                 (A) (A) (A) (A) (A) (A) (A) (A) (A) (A) (A) (A)
                 (A) (A) (A) (A) (A) (A) (A) (A) (A) (A) (A) (A)
                 (A) (A) (A) (A) (A) (A) (A) (A) (A) (A) (A) (A)
                 (A) (A) (A) (A) (A) (A) (A) (A) (A) (A) (A) (A)
                 (A) (A) (A) (A) (A) (A) (A) (A) (A) (A) (A) (A)
                 (A) (A) (A) (A) (A) (A) (A) (A) (A) (A) (A) (A)
                 (A) (A) (A) (A) (A) (A) (A) (A) (A) (A) (A) (A)
                 (A) (A) (A) (A) (A) (A) (A) (A) (A) (A) (A) (A)
                 (A) (A) (A) (A) (A) (A) (A) (A) (A) (A) (A) (A)
                 (A) (A) (A) (A) (A) (A) (A) (A) (A) (A) (A) (A)
                 (A) (A) (A) (A) (A) (A) (A) (A) (A) (A) (A) (A)
                 (A) (A) (A) (A) (A) (A) (A) (A) (A) (A) (A) (A)
                 (A) (A) (A) (A) (A) (A) (A) (A) (A) (A) (A) (A)
                 (A) (A) (A) (A) (A) (A) (A) (A) (A) (A) (A) (A)
                 (A) (A) (A) (A) (A) (A) (A) (A) (A) (A) (A) (A)
                 (A) (A) (A) (A) (A) (A) (A) (A) (A) (A) (A) (A)
 The electronic state is 1-A.
 Alpha  occ. eigenvalues --  -19.14752 -19.14715 -14.54135 -14.36801 -10.24648
 Alpha  occ. eigenvalues --  -10.23133 -10.22058 -10.21662 -10.21513 -10.21422
 Alpha  occ. eigenvalues --  -10.21146 -10.20991 -10.20732 -10.20689 -10.20498
 Alpha  occ. eigenvalues --  -10.20328 -10.20223 -10.20163 -10.20105 -10.20061
 Alpha  occ. eigenvalues --  -10.20047 -10.19783 -10.19717 -10.18826  -1.21008
 Alpha  occ. eigenvalues --   -1.03490  -0.93923  -0.90218  -0.86789  -0.84328
 Alpha  occ. eigenvalues --   -0.83444  -0.80889  -0.78800  -0.76383  -0.75664
 Alpha  occ. eigenvalues --   -0.73820  -0.72075  -0.68651  -0.64555  -0.63947
 Alpha  occ. eigenvalues --   -0.62882  -0.61777  -0.59790  -0.57240  -0.55642
 Alpha  occ. eigenvalues --   -0.54323  -0.53542  -0.52783  -0.51649  -0.51515
 Alpha  occ. eigenvalues --   -0.51348  -0.50383  -0.48498  -0.48039  -0.47284
 Alpha  occ. eigenvalues --   -0.45428  -0.44655  -0.44269  -0.42744  -0.42169
 Alpha  occ. eigenvalues --   -0.41771  -0.40889  -0.40651  -0.40004  -0.39004
 Alpha  occ. eigenvalues --   -0.38366  -0.38248  -0.36812  -0.36069  -0.35419
 Alpha  occ. eigenvalues --   -0.33912  -0.33031  -0.32645  -0.29918  -0.28941
 Alpha  occ. eigenvalues --   -0.28907  -0.28107  -0.27071  -0.26470  -0.24388
 Alpha  occ. eigenvalues --   -0.23075  -0.18985
 Alpha virt. eigenvalues --   -0.09525  -0.05648  -0.04000  -0.02068  -0.00700
 Alpha virt. eigenvalues --    0.02396   0.02944   0.03392   0.04918   0.06008
 Alpha virt. eigenvalues --    0.06461   0.07595   0.07950   0.08385   0.09543
 Alpha virt. eigenvalues --    0.10194   0.10436   0.12073   0.12580   0.14910
 Alpha virt. eigenvalues --    0.15308   0.17100   0.17797   0.19255   0.20363
 Alpha virt. eigenvalues --    0.21728   0.22494   0.22959   0.23853   0.24523
 Alpha virt. eigenvalues --    0.25183   0.26230   0.28183   0.28651   0.29298
 Alpha virt. eigenvalues --    0.29506   0.29904   0.30975   0.32266   0.33101
 Alpha virt. eigenvalues --    0.33765   0.38139   0.38209   0.39582   0.40967
 Alpha virt. eigenvalues --    0.41644   0.42585   0.43248   0.43589   0.43907
 Alpha virt. eigenvalues --    0.44935   0.45008   0.45554   0.46045   0.46300
 Alpha virt. eigenvalues --    0.46694   0.46989   0.47759   0.48333   0.48901
 Alpha virt. eigenvalues --    0.49039   0.49679   0.50509   0.50755   0.51094
 Alpha virt. eigenvalues --    0.51427   0.51900   0.52080   0.52123   0.52812
 Alpha virt. eigenvalues --    0.53147   0.53543   0.53818   0.54109   0.54501
 Alpha virt. eigenvalues --    0.54727   0.55833   0.56896   0.57560   0.57820
 Alpha virt. eigenvalues --    0.58149   0.58664   0.60045   0.61462   0.62592
 Alpha virt. eigenvalues --    0.63566   0.64040   0.65396   0.65725   0.66458
 Alpha virt. eigenvalues --    0.66781   0.67179   0.67495   0.68119   0.69349
 Alpha virt. eigenvalues --    0.69877   0.70587   0.71255   0.71353   0.72150
 Alpha virt. eigenvalues --    0.73628   0.73785   0.74809   0.75396   0.77731
 Alpha virt. eigenvalues --    0.78107   0.79436   0.81210   0.82693   0.83004
 Alpha virt. eigenvalues --    0.84579   0.84885   0.85460   0.86172   0.87032
 Alpha virt. eigenvalues --    0.87446   0.88199   0.88795   0.89213   0.90721
 Alpha virt. eigenvalues --    0.91056   0.91743   0.92200   0.92833   0.93123
 Alpha virt. eigenvalues --    0.93315   0.94008   0.94488   0.95552   0.95979
 Alpha virt. eigenvalues --    0.96373   0.97487   0.98228   0.98696   0.99048
 Alpha virt. eigenvalues --    0.99605   1.00394   1.00651   1.01134   1.01784
 Alpha virt. eigenvalues --    1.02428   1.02962   1.03666   1.04378   1.05718
 Alpha virt. eigenvalues --    1.06469   1.06991   1.07338   1.07974   1.08887
 Alpha virt. eigenvalues --    1.09235   1.10441   1.12009   1.14506   1.14872
 Alpha virt. eigenvalues --    1.15041   1.15832   1.17891   1.19820   1.21865
 Alpha virt. eigenvalues --    1.24322   1.29631   1.32087   1.32842   1.33587
 Alpha virt. eigenvalues --    1.34332   1.34652   1.35829   1.36503   1.36875
 Alpha virt. eigenvalues --    1.37449   1.37755   1.39030   1.41080   1.41987
 Alpha virt. eigenvalues --    1.42214   1.42635   1.43137   1.44471   1.45479
 Alpha virt. eigenvalues --    1.45818   1.46306   1.47603   1.48338   1.48896
 Alpha virt. eigenvalues --    1.49829   1.50463   1.50712   1.51636   1.52976
 Alpha virt. eigenvalues --    1.53902   1.55766   1.56070   1.56494   1.57313
 Alpha virt. eigenvalues --    1.58070   1.58376   1.59043   1.59620   1.59858
 Alpha virt. eigenvalues --    1.60866   1.61019   1.61702   1.62601   1.62959
 Alpha virt. eigenvalues --    1.63806   1.64184   1.65074   1.65992   1.66259
 Alpha virt. eigenvalues --    1.66557   1.67535   1.68547   1.69279   1.71296
 Alpha virt. eigenvalues --    1.72433   1.72986   1.73988   1.74633   1.74911
 Alpha virt. eigenvalues --    1.75962   1.77367   1.77704   1.78062   1.79215
 Alpha virt. eigenvalues --    1.80027   1.80422   1.80451   1.80955   1.82413
 Alpha virt. eigenvalues --    1.82880   1.83652   1.84307   1.84771   1.85786
 Alpha virt. eigenvalues --    1.87078   1.87396   1.88474   1.90139   1.90880
 Alpha virt. eigenvalues --    1.92309   1.92646   1.93427   1.95009   1.96612
 Alpha virt. eigenvalues --    1.97338   1.98034   2.00378   2.01108   2.02839
 Alpha virt. eigenvalues --    2.03331   2.04580   2.05279   2.05674   2.08041
 Alpha virt. eigenvalues --    2.08473   2.08913   2.10566   2.11184   2.11793
 Alpha virt. eigenvalues --    2.12156   2.12958   2.13197   2.15333   2.17204
 Alpha virt. eigenvalues --    2.18551   2.19739   2.20143   2.21000   2.21777
 Alpha virt. eigenvalues --    2.22829   2.24681   2.25327   2.27295   2.27929
 Alpha virt. eigenvalues --    2.30011   2.30605   2.33656   2.35921   2.38089
 Alpha virt. eigenvalues --    2.38531   2.39075   2.40293   2.44811   2.46210
 Alpha virt. eigenvalues --    2.47154   2.48287   2.49521   2.51095   2.52212
 Alpha virt. eigenvalues --    2.54157   2.56224   2.59770   2.61696   2.63230
 Alpha virt. eigenvalues --    2.63728   2.66144   2.66905   2.67603   2.69611
 Alpha virt. eigenvalues --    2.70452   2.72587   2.75566   2.76429   2.77900
 Alpha virt. eigenvalues --    2.80282   2.82548   2.84191   2.84947   2.88129
 Alpha virt. eigenvalues --    2.89911   3.00068   3.03497   3.05218   3.19589
 Alpha virt. eigenvalues --    3.23154   3.24145   3.26333   3.36657   3.41554
 Alpha virt. eigenvalues --    3.44162   3.50691   3.62480   3.66131
          Condensed to atoms (all electrons):
               1          2          3          4          5          6
     1  C    5.305017   0.393427   0.064818  -0.112762  -0.001841   0.000138
     2  C    0.393427   5.037911   0.371291   0.069058   0.012290  -0.000813
     3  C    0.064818   0.371291   5.032731   0.393558  -0.142499   0.011948
     4  C   -0.112762   0.069058   0.393558   5.154962   0.376608   0.070102
     5  C   -0.001841   0.012290  -0.142499   0.376608   5.022568   0.397417
     6  C    0.000138  -0.000813   0.011948   0.070102   0.397417   5.088432
     7  C   -0.000252   0.000065  -0.001266  -0.111883   0.062442   0.363290
     8  C   -0.000006   0.000001  -0.000004  -0.002309   0.018120  -0.147897
     9  C    0.000001  -0.000000   0.000002  -0.000045  -0.000055   0.020440
    10  C   -0.000008   0.000002  -0.000006  -0.000167   0.000057  -0.004222
    11  C   -0.002358  -0.000019  -0.000184   0.029134  -0.004492   0.027953
    12  C    0.018277  -0.000026   0.000065  -0.004769   0.000013   0.000056
    13  C   -0.163780   0.018940  -0.003943   0.026947   0.000043  -0.000073
    14  C    0.234279   0.006781  -0.126387  -0.069054   0.024793  -0.004529
    15  C   -0.008052  -0.117351   0.021303   0.269270   0.016423  -0.122057
    16  C    0.030611  -0.003924   0.025516  -0.050738  -0.126298  -0.006213
    17  C    0.326501  -0.128591   0.015238  -0.001871  -0.000004   0.000001
    18  C    0.000000   0.000000  -0.000000  -0.000015  -0.000071  -0.028563
    19  C   -0.027503  -0.025567  -0.000163   0.000000  -0.000000  -0.000000
    20  C    0.000000  -0.000000  -0.000000   0.000002  -0.000068  -0.000376
    21  N   -0.000000   0.000000  -0.000000  -0.000000  -0.000000  -0.000010
    22  N    0.003289  -0.000315  -0.000006   0.000000  -0.000000  -0.000000
    23  O   -0.000111   0.000007  -0.000000  -0.000000  -0.000000   0.000000
    24  O    0.001466   0.000027   0.000000  -0.000000  -0.000000   0.000000
    25  H   -0.030381   0.383485  -0.053113   0.010421  -0.000345   0.000006
    26  H    0.010182  -0.048665   0.381408  -0.037769  -0.021323   0.000843
    27  H   -0.000073   0.000744  -0.022394  -0.039359   0.380105  -0.045742
    28  H    0.000001   0.000008  -0.000355   0.009761  -0.059245   0.375848
    29  H    0.000000   0.000000   0.000000  -0.000001   0.000006  -0.000253
    30  H   -0.000001   0.000000  -0.000000   0.000006  -0.000000   0.000043
    31  H   -0.000405   0.000006   0.000001   0.000023   0.000000   0.000006
    32  H   -0.053355  -0.001313   0.000016  -0.000068   0.000001  -0.000000
    33  H    0.026517   0.013660  -0.000025  -0.000136  -0.000000   0.000000
    34  H   -0.000000   0.000000  -0.000001  -0.000103   0.002436   0.011425
    35  H   -0.024382   0.006484   0.000992  -0.000070  -0.000000   0.000000
    36  H   -0.000000   0.000000   0.000000  -0.000000   0.000003   0.000009
    37  H   -0.000000  -0.000000   0.000000   0.000000  -0.000000  -0.000001
    38  H   -0.000000  -0.000000  -0.000000   0.000000   0.000000  -0.000000
               7          8          9         10         11         12
     1  C   -0.000252  -0.000006   0.000001  -0.000008  -0.002358   0.018277
     2  C    0.000065   0.000001  -0.000000   0.000002  -0.000019  -0.000026
     3  C   -0.001266  -0.000004   0.000002  -0.000006  -0.000184   0.000065
     4  C   -0.111883  -0.002309  -0.000045  -0.000167   0.029134  -0.004769
     5  C    0.062442   0.018120  -0.000055   0.000057  -0.004492   0.000013
     6  C    0.363290  -0.147897   0.020440  -0.004222   0.027953   0.000056
     7  C    5.465668   0.273026   0.036641  -0.128525  -0.072711   0.025502
     8  C    0.273026   5.168511   0.397348   0.064227  -0.109999  -0.001911
     9  C    0.036641   0.397348   5.028771   0.365923   0.065899   0.012460
    10  C   -0.128525   0.064227   0.365923   5.031148   0.402642  -0.144069
    11  C   -0.072711  -0.109999   0.065899   0.402642   5.163908   0.365264
    12  C    0.025502  -0.001911   0.012460  -0.144069   0.365264   5.023224
    13  C   -0.004410   0.000148  -0.000763   0.012112   0.066887   0.393956
    14  C    0.029635  -0.000221   0.000081  -0.001473  -0.112227   0.068558
    15  C   -0.054732   0.029627  -0.004602   0.026726  -0.051981  -0.128049
    16  C    0.207169  -0.012615  -0.122303   0.022081   0.273993   0.019122
    17  C    0.000002   0.000000   0.000000  -0.000001  -0.000106   0.000767
    18  C   -0.080920   0.382984  -0.125524   0.015640  -0.001713  -0.000006
    19  C    0.000000   0.000000  -0.000000  -0.000000   0.000001  -0.000060
    20  C    0.015204  -0.011459  -0.023717   0.000224  -0.000009   0.000000
    21  N   -0.000079   0.002108   0.000172  -0.000003  -0.000000  -0.000000
    22  N   -0.000000   0.000000  -0.000000  -0.000000   0.000000  -0.000000
    23  O   -0.000000   0.000000   0.000000  -0.000000  -0.000000  -0.000000
    24  O   -0.000000  -0.000000  -0.000000  -0.000000   0.000000  -0.000001
    25  H    0.000001   0.000000  -0.000000   0.000000   0.000000   0.000002
    26  H   -0.000048  -0.000001   0.000000  -0.000000   0.000005  -0.000000
    27  H    0.009907  -0.000397   0.000006   0.000000   0.000026   0.000001
    28  H   -0.014308  -0.047582  -0.000799  -0.000008  -0.000131   0.000002
    29  H    0.013134  -0.035487   0.378065  -0.049208   0.009610  -0.000378
    30  H    0.000511   0.009607  -0.049565   0.378035  -0.034795  -0.021683
    31  H   -0.000166  -0.000069   0.000688  -0.022192  -0.041148   0.378713
    32  H    0.000024   0.000001   0.000007  -0.000320   0.009902  -0.055417
    33  H    0.000000  -0.000000   0.000000  -0.000001  -0.000109   0.001593
    34  H   -0.043723   0.015879   0.011917  -0.000223  -0.000018   0.000001
    35  H   -0.000000  -0.000000   0.000000   0.000000  -0.000000   0.000002
    36  H   -0.000490  -0.022458   0.007159   0.000609  -0.000052  -0.000000
    37  H    0.000012  -0.000461   0.000040   0.000001  -0.000000  -0.000000
    38  H   -0.000027   0.000394   0.000013   0.000001  -0.000000   0.000000
              13         14         15         16         17         18
     1  C   -0.163780   0.234279  -0.008052   0.030611   0.326501   0.000000
     2  C    0.018940   0.006781  -0.117351  -0.003924  -0.128591   0.000000
     3  C   -0.003943  -0.126387   0.021303   0.025516   0.015238  -0.000000
     4  C    0.026947  -0.069054   0.269270  -0.050738  -0.001871  -0.000015
     5  C    0.000043   0.024793   0.016423  -0.126298  -0.000004  -0.000071
     6  C   -0.000073  -0.004529  -0.122057  -0.006213   0.000001  -0.028563
     7  C   -0.004410   0.029635  -0.054732   0.207169   0.000002  -0.080920
     8  C    0.000148  -0.000221   0.029627  -0.012615   0.000000   0.382984
     9  C   -0.000763   0.000081  -0.004602  -0.122303   0.000000  -0.125524
    10  C    0.012112  -0.001473   0.026726   0.022081  -0.000001   0.015640
    11  C    0.066887  -0.112227  -0.051981   0.273993  -0.000106  -0.001713
    12  C    0.393956   0.068558  -0.128049   0.019122   0.000767  -0.000006
    13  C    5.103978   0.377718  -0.008831  -0.120431  -0.020935   0.000001
    14  C    0.377718   5.489201   0.211595  -0.055438  -0.084976  -0.000001
    15  C   -0.008831   0.211595   5.624299   0.164079   0.021406  -0.000142
    16  C   -0.120431  -0.055438   0.164079   5.621973  -0.000241   0.023008
    17  C   -0.020935  -0.084976   0.021406  -0.000241   5.144303  -0.000000
    18  C    0.000001  -0.000001  -0.000142   0.023008  -0.000000   5.057678
    19  C    0.000138   0.015649  -0.000236  -0.000001   0.375811  -0.000000
    20  C   -0.000000   0.000000  -0.000000  -0.000216   0.000000   0.539299
    21  N    0.000000  -0.000000   0.000000   0.000001   0.000000  -0.052051
    22  N   -0.000026  -0.000037   0.000001  -0.000000  -0.016934   0.000000
    23  O   -0.000000  -0.000000   0.000000   0.000000   0.011104   0.000000
    24  O   -0.000026  -0.000046   0.000000   0.000000   0.009440   0.000000
    25  H   -0.000166   0.014249  -0.000502   0.000033  -0.040027  -0.000000
    26  H    0.000041   0.000510   0.012695  -0.000349  -0.000323  -0.000000
    27  H    0.000005  -0.000186   0.013656   0.000057  -0.000001   0.000023
    28  H   -0.000000   0.000026  -0.000542   0.016741   0.000000   0.014076
    29  H    0.000007   0.000001   0.000042   0.000055  -0.000000  -0.028941
    30  H    0.000784  -0.000045  -0.000381   0.013033  -0.000000  -0.000346
    31  H   -0.041916   0.010344   0.000028   0.013332   0.000049  -0.000001
    32  H    0.381352  -0.012803   0.016085  -0.000763   0.016304   0.000000
    33  H    0.007482  -0.047903  -0.000893   0.000155   0.336442   0.000000
    34  H   -0.000000   0.000001   0.000077  -0.001384   0.000000   0.359635
    35  H    0.000008  -0.000634   0.000055   0.000000  -0.027794  -0.000000
    36  H    0.000000  -0.000000   0.000000   0.000026  -0.000000  -0.026195
    37  H    0.000000  -0.000000   0.000000  -0.000000   0.000000   0.006635
    38  H   -0.000000   0.000000   0.000000  -0.000001   0.000000  -0.021087
              19         20         21         22         23         24
     1  C   -0.027503   0.000000  -0.000000   0.003289  -0.000111   0.001466
     2  C   -0.025567  -0.000000   0.000000  -0.000315   0.000007   0.000027
     3  C   -0.000163  -0.000000  -0.000000  -0.000006  -0.000000   0.000000
     4  C    0.000000   0.000002  -0.000000   0.000000  -0.000000  -0.000000
     5  C   -0.000000  -0.000068  -0.000000  -0.000000  -0.000000  -0.000000
     6  C   -0.000000  -0.000376  -0.000010  -0.000000   0.000000   0.000000
     7  C    0.000000   0.015204  -0.000079  -0.000000  -0.000000  -0.000000
     8  C    0.000000  -0.011459   0.002108   0.000000   0.000000  -0.000000
     9  C   -0.000000  -0.023717   0.000172  -0.000000   0.000000  -0.000000
    10  C   -0.000000   0.000224  -0.000003  -0.000000  -0.000000  -0.000000
    11  C    0.000001  -0.000009  -0.000000   0.000000  -0.000000   0.000000
    12  C   -0.000060   0.000000  -0.000000  -0.000000  -0.000000  -0.000001
    13  C    0.000138  -0.000000   0.000000  -0.000026  -0.000000  -0.000026
    14  C    0.015649   0.000000  -0.000000  -0.000037  -0.000000  -0.000046
    15  C   -0.000236  -0.000000   0.000000   0.000001   0.000000   0.000000
    16  C   -0.000001  -0.000216   0.000001  -0.000000   0.000000   0.000000
    17  C    0.375811   0.000000   0.000000  -0.016934   0.011104   0.009440
    18  C   -0.000000   0.539299  -0.052051   0.000000   0.000000   0.000000
    19  C    5.181477  -0.000000   0.000000   0.269184  -0.091907  -0.123464
    20  C   -0.000000   4.705446   0.466817   0.000000   0.000000   0.000000
    21  N    0.000000   0.466817   5.942804   0.000000   0.000000   0.000000
    22  N    0.269184   0.000000   0.000000   5.716945   0.413373   0.443633
    23  O   -0.091907   0.000000   0.000000   0.413373   8.007872  -0.091873
    24  O   -0.123464   0.000000   0.000000   0.443633  -0.091873   7.971523
    25  H    0.009631  -0.000000  -0.000000   0.000023  -0.000137  -0.000005
    26  H    0.000020   0.000000  -0.000000  -0.000000   0.000000   0.000000
    27  H   -0.000000  -0.000001  -0.000000   0.000000  -0.000000   0.000000
    28  H   -0.000000   0.002143  -0.000074   0.000000   0.000000   0.000000
    29  H    0.000000   0.005843  -0.000018  -0.000000   0.000000   0.000000
    30  H    0.000000   0.000017  -0.000000  -0.000000  -0.000000  -0.000000
    31  H   -0.000000   0.000000   0.000000  -0.000000   0.000000   0.000000
    32  H    0.002818  -0.000000   0.000000   0.000040  -0.000003  -0.000820
    33  H   -0.065137  -0.000000  -0.000000  -0.016418   0.001410   0.049318
    34  H   -0.000000  -0.075377  -0.008120   0.000000  -0.000000  -0.000000
    35  H    0.381048   0.000000   0.000000  -0.027796   0.011888   0.005310
    36  H    0.000000   0.371831  -0.036179  -0.000000   0.000000  -0.000000
    37  H    0.000000  -0.014945   0.373083   0.000000   0.000000   0.000000
    38  H    0.000000  -0.017423   0.376074   0.000000   0.000000   0.000000
              25         26         27         28         29         30
     1  C   -0.030381   0.010182  -0.000073   0.000001   0.000000  -0.000001
     2  C    0.383485  -0.048665   0.000744   0.000008   0.000000   0.000000
     3  C   -0.053113   0.381408  -0.022394  -0.000355   0.000000  -0.000000
     4  C    0.010421  -0.037769  -0.039359   0.009761  -0.000001   0.000006
     5  C   -0.000345  -0.021323   0.380105  -0.059245   0.000006  -0.000000
     6  C    0.000006   0.000843  -0.045742   0.375848  -0.000253   0.000043
     7  C    0.000001  -0.000048   0.009907  -0.014308   0.013134   0.000511
     8  C    0.000000  -0.000001  -0.000397  -0.047582  -0.035487   0.009607
     9  C   -0.000000   0.000000   0.000006  -0.000799   0.378065  -0.049565
    10  C    0.000000  -0.000000   0.000000  -0.000008  -0.049208   0.378035
    11  C    0.000000   0.000005   0.000026  -0.000131   0.009610  -0.034795
    12  C    0.000002  -0.000000   0.000001   0.000002  -0.000378  -0.021683
    13  C   -0.000166   0.000041   0.000005  -0.000000   0.000007   0.000784
    14  C    0.014249   0.000510  -0.000186   0.000026   0.000001  -0.000045
    15  C   -0.000502   0.012695   0.013656  -0.000542   0.000042  -0.000381
    16  C    0.000033  -0.000349   0.000057   0.016741   0.000055   0.013033
    17  C   -0.040027  -0.000323  -0.000001   0.000000  -0.000000  -0.000000
    18  C   -0.000000  -0.000000   0.000023   0.014076  -0.028941  -0.000346
    19  C    0.009631   0.000020  -0.000000  -0.000000   0.000000   0.000000
    20  C   -0.000000   0.000000  -0.000001   0.002143   0.005843   0.000017
    21  N   -0.000000  -0.000000  -0.000000  -0.000074  -0.000018  -0.000000
    22  N    0.000023  -0.000000   0.000000   0.000000  -0.000000  -0.000000
    23  O   -0.000137   0.000000  -0.000000   0.000000   0.000000  -0.000000
    24  O   -0.000005   0.000000   0.000000   0.000000   0.000000  -0.000000
    25  H    0.764428  -0.017074  -0.000015  -0.000000   0.000000  -0.000000
    26  H   -0.017074   0.761674   0.004518  -0.000026  -0.000000   0.000000
    27  H   -0.000015   0.004518   0.766976  -0.017859  -0.000000   0.000000
    28  H   -0.000000  -0.000026  -0.017859   0.772318  -0.000034   0.000001
    29  H    0.000000  -0.000000  -0.000000  -0.000034   0.768855  -0.016806
    30  H   -0.000000   0.000000   0.000000   0.000001  -0.016806   0.763226
    31  H   -0.000000   0.000000   0.000000  -0.000000  -0.000019   0.004797
    32  H   -0.000034   0.000001  -0.000000   0.000000  -0.000000  -0.000025
    33  H    0.000162   0.000004   0.000000   0.000000  -0.000000   0.000000
    34  H    0.000000   0.000000   0.000115  -0.005553   0.000027   0.000008
    35  H   -0.003815   0.000087  -0.000000  -0.000000   0.000000   0.000000
    36  H    0.000000   0.000000   0.000000  -0.000020  -0.000062   0.000067
    37  H   -0.000000  -0.000000  -0.000000  -0.000006   0.000091   0.000000
    38  H    0.000000   0.000000   0.000000  -0.000017  -0.000014   0.000000
              31         32         33         34         35         36
     1  C   -0.000405  -0.053355   0.026517  -0.000000  -0.024382  -0.000000
     2  C    0.000006  -0.001313   0.013660   0.000000   0.006484   0.000000
     3  C    0.000001   0.000016  -0.000025  -0.000001   0.000992   0.000000
     4  C    0.000023  -0.000068  -0.000136  -0.000103  -0.000070  -0.000000
     5  C    0.000000   0.000001  -0.000000   0.002436  -0.000000   0.000003
     6  C    0.000006  -0.000000   0.000000   0.011425   0.000000   0.000009
     7  C   -0.000166   0.000024   0.000000  -0.043723  -0.000000  -0.000490
     8  C   -0.000069   0.000001  -0.000000   0.015879  -0.000000  -0.022458
     9  C    0.000688   0.000007   0.000000   0.011917   0.000000   0.007159
    10  C   -0.022192  -0.000320  -0.000001  -0.000223   0.000000   0.000609
    11  C   -0.041148   0.009902  -0.000109  -0.000018  -0.000000  -0.000052
    12  C    0.378713  -0.055417   0.001593   0.000001   0.000002  -0.000000
    13  C   -0.041916   0.381352   0.007482  -0.000000   0.000008   0.000000
    14  C    0.010344  -0.012803  -0.047903   0.000001  -0.000634  -0.000000
    15  C    0.000028   0.016085  -0.000893   0.000077   0.000055   0.000000
    16  C    0.013332  -0.000763   0.000155  -0.001384   0.000000   0.000026
    17  C    0.000049   0.016304   0.336442   0.000000  -0.027794  -0.000000
    18  C   -0.000001   0.000000   0.000000   0.359635  -0.000000  -0.026195
    19  C   -0.000000   0.002818  -0.065137  -0.000000   0.381048   0.000000
    20  C    0.000000  -0.000000  -0.000000  -0.075377   0.000000   0.371831
    21  N    0.000000   0.000000  -0.000000  -0.008120   0.000000  -0.036179
    22  N   -0.000000   0.000040  -0.016418   0.000000  -0.027796  -0.000000
    23  O    0.000000  -0.000003   0.001410  -0.000000   0.011888   0.000000
    24  O    0.000000  -0.000820   0.049318  -0.000000   0.005310  -0.000000
    25  H   -0.000000  -0.000034   0.000162   0.000000  -0.003815   0.000000
    26  H    0.000000   0.000001   0.000004   0.000000   0.000087   0.000000
    27  H    0.000000  -0.000000   0.000000   0.000115  -0.000000   0.000000
    28  H   -0.000000   0.000000   0.000000  -0.005553  -0.000000  -0.000020
    29  H   -0.000019  -0.000000  -0.000000   0.000027   0.000000  -0.000062
    30  H    0.004797  -0.000025   0.000000   0.000008   0.000000   0.000067
    31  H    0.761951  -0.018168   0.000145   0.000000   0.000000   0.000000
    32  H   -0.018168   0.763416  -0.013178   0.000000  -0.000004  -0.000000
    33  H    0.000145  -0.013178   0.698187  -0.000000   0.007885   0.000000
    34  H    0.000000   0.000000  -0.000000   0.749209   0.000000   0.009751
    35  H    0.000000  -0.000004   0.007885   0.000000   0.678221   0.000000
    36  H    0.000000  -0.000000   0.000000   0.009751   0.000000   0.696355
    37  H    0.000000  -0.000000  -0.000000  -0.000071   0.000000  -0.013553
    38  H    0.000000   0.000000   0.000000   0.005648   0.000000   0.009721
              37         38
     1  C   -0.000000  -0.000000
     2  C   -0.000000  -0.000000
     3  C    0.000000  -0.000000
     4  C    0.000000   0.000000
     5  C   -0.000000   0.000000
     6  C   -0.000001  -0.000000
     7  C    0.000012  -0.000027
     8  C   -0.000461   0.000394
     9  C    0.000040   0.000013
    10  C    0.000001   0.000001
    11  C   -0.000000  -0.000000
    12  C   -0.000000   0.000000
    13  C    0.000000  -0.000000
    14  C   -0.000000   0.000000
    15  C    0.000000   0.000000
    16  C   -0.000000  -0.000001
    17  C    0.000000   0.000000
    18  C    0.006635  -0.021087
    19  C    0.000000   0.000000
    20  C   -0.014945  -0.017423
    21  N    0.373083   0.376074
    22  N    0.000000   0.000000
    23  O    0.000000   0.000000
    24  O    0.000000   0.000000
    25  H   -0.000000   0.000000
    26  H   -0.000000   0.000000
    27  H   -0.000000   0.000000
    28  H   -0.000006  -0.000017
    29  H    0.000091  -0.000014
    30  H    0.000000   0.000000
    31  H    0.000000   0.000000
    32  H   -0.000000   0.000000
    33  H   -0.000000   0.000000
    34  H   -0.000071   0.005648
    35  H    0.000000   0.000000
    36  H   -0.013553   0.009721
    37  H    0.583861  -0.036666
    38  H   -0.036666   0.593065
 Mulliken charges:
               1
     1  C    0.010745
     2  C    0.012399
     3  C    0.031460
     4  C    0.021266
     5  C    0.042915
     6  C   -0.007208
     7  C    0.011309
     8  C    0.030895
     9  C    0.001741
    10  C    0.030997
    11  C    0.016828
    12  C    0.048792
    13  C   -0.025248
    14  C    0.032540
    15  C    0.070984
    16  C    0.069931
    17  C    0.064436
    18  C   -0.033400
    19  C    0.098261
    20  C    0.036765
    21  N   -0.064525
    22  N    0.215044
    23  O   -0.261622
    24  O   -0.264481
    25  H   -0.036827
    26  H   -0.046410
    27  H   -0.050111
    28  H   -0.044364
    29  H   -0.044515
    30  H   -0.046486
    31  H   -0.045999
    32  H   -0.033694
    33  H    0.000840
    34  H   -0.031556
    35  H   -0.007483
    36  H    0.003479
    37  H    0.101981
    38  H    0.090320
 Sum of Mulliken charges =  -0.00000
 Mulliken charges with hydrogens summed into heavy atoms:
               1
     1  C    0.010745
     2  C   -0.024428
     3  C   -0.014950
     4  C    0.021266
     5  C   -0.007196
     6  C   -0.051572
     7  C    0.011309
     8  C    0.030895
     9  C   -0.042774
    10  C   -0.015489
    11  C    0.016828
    12  C    0.002792
    13  C   -0.058942
    14  C    0.032540
    15  C    0.070984
    16  C    0.069931
    17  C    0.065276
    18  C   -0.064955
    19  C    0.090779
    20  C    0.040244
    21  N    0.127776
    22  N    0.215044
    23  O   -0.261622
    24  O   -0.264481
 Electronic spatial extent (au):  <R**2>=          11201.8657
 Charge=             -0.0000 electrons
 Dipole moment (field-independent basis, Debye):
    X=             11.4448    Y=              2.0678    Z=              0.7308  Tot=             11.6530
 Quadrupole moment (field-independent basis, Debye-Ang):
   XX=           -135.2009   YY=           -123.1809   ZZ=           -142.4322
   XY=             -5.4803   XZ=              7.0780   YZ=             -1.1907
 Traceless Quadrupole moment (field-independent basis, Debye-Ang):
   XX=             -1.5963   YY=             10.4238   ZZ=             -8.8275
   XY=             -5.4803   XZ=              7.0780   YZ=             -1.1907
 Octapole moment (field-independent basis, Debye-Ang**2):
  XXX=            788.9020  YYY=              6.4001  ZZZ=              2.6487  XYY=             24.2665
  XXY=             86.5984  XXZ=             54.0334  XZZ=            -26.8107  YZZ=             -3.7357
  YYZ=             -0.2713  XYZ=             -8.9790
 Hexadecapole moment (field-independent basis, Debye-Ang**3):
 XXXX=         -12055.9063 YYYY=          -1815.4127 ZZZZ=           -158.1245 XXXY=             -1.8541
 XXXZ=            509.1563 YYYX=             -5.4160 YYYZ=             -0.1567 ZZZX=              7.8126
 ZZZY=             -1.6758 XXYY=          -2296.8717 XXZZ=          -2110.7718 YYZZ=           -386.6034
 XXYZ=            -56.8393 YYXZ=             -2.6793 ZZXY=             24.3906
 N-N= 1.790737908288D+03 E-N=-5.978006717480D+03  KE= 1.023847397972D+03
  Exact polarizability:     663.670     -23.056     265.639       3.402      -2.642      80.447
 Approx polarizability:    1138.126     -77.889     525.036       2.675      -4.736     137.178
 No NMR shielding tensors so no spin-rotation constants.
 Leave Link  601 at Fri Aug 15 16:02:06 2025, MaxMem=  1342177280 cpu:               4.6 elap:               0.3
 (Enter /opt/bwhpc/common/chem/gaussian/g16.C.01/x86_64-Intel-avx2-source/g16/l9999.exe)

 ----------------------------------------------------------------------

 Electric dipole moment (input orientation):
 (Debye = 10**-18 statcoulomb cm , SI units = C m)
                  (au)            (Debye)         (10**-30 SI)
   Tot        0.458464D+01      0.116530D+02      0.388702D+02
   x          0.295414D+01      0.750866D+01      0.250462D+02
   y         -0.343753D+01     -0.873732D+01     -0.291446D+02
   z          0.689534D+00      0.175262D+01      0.584611D+01

 Dipole polarizability, Alpha (input orientation).
 (esu units = cm**3 , SI units = C**2 m**2 J**-1)
 Alpha(0;0):
               (au)            (10**-24 esu)      (10**-40 SI)
   iso        0.336585D+03      0.498768D+02      0.554954D+02
   aniso      0.517771D+03      0.767258D+02      0.853689D+02
   xx         0.346069D+03      0.512821D+02      0.570591D+02
   yx        -0.160137D+03     -0.237298D+02     -0.264030D+02
   yy         0.578099D+03      0.856655D+02      0.953157D+02
   zx         0.244175D+02      0.361831D+01      0.402591D+01
   zy        -0.491199D+02     -0.727882D+01     -0.809878D+01
   zz         0.855874D+02      0.126828D+02      0.141115D+02

 First dipole hyperpolarizability, Beta (input orientation).
 ||, _|_  parallel and perpendicular components, (z) with respect to z axis,
 vector components x,y,z.  Values do not include the 1/n! factor of 1/2.
 (esu units = statvolt**-1 cm**4 , SI units = C**3 m**3 J**-2)
 Beta(0;0,0):
               (au)            (10**-30 esu)      (10**-50 SI)
   || (z)    -0.811787D+03     -0.701321D+01     -0.260288D+01
   _|_(z)    -0.270596D+03     -0.233774D+01     -0.867628D+00
   x         -0.289000D+05     -0.249674D+03     -0.926639D+02
   y          0.410078D+05      0.354276D+03      0.131486D+03
   z         -0.405894D+04     -0.350660D+02     -0.130144D+02
   ||         0.100664D+05      0.869662D+02      0.322766D+02
   xxx       -0.310317D+04     -0.268090D+02     -0.994989D+01
   xxy        0.464418D+04      0.401221D+02      0.148909D+02
   yxy       -0.648484D+04     -0.560240D+02     -0.207927D+02
   yyy        0.897550D+04      0.775414D+02      0.287787D+02
   xxz       -0.483833D+03     -0.417994D+01     -0.155134D+01
   yxz        0.662264D+03      0.572145D+01      0.212346D+01
   yyz       -0.878796D+03     -0.759211D+01     -0.281774D+01
   zxz       -0.453230D+02     -0.391556D+00     -0.145322D+00
   zyz        0.495909D+02      0.428426D+00      0.159006D+00
   zzz        0.965068D+01      0.833744D-01      0.309436D-01

 ----------------------------------------------------------------------

 Dipole orientation:
     6         -5.99510371         -3.22904207        -12.82179922
     6         -3.98357136         -1.58664788        -12.19643709
     6         -3.24124203         -1.18798186         -9.72426878
     6         -4.47898623         -2.42693264         -7.71226675
     6         -3.75862911         -2.02814302         -5.13739628
     6         -4.96412827         -3.23972199         -3.20037784
     6         -6.99683448         -4.98154140         -3.63993241
     6         -8.25649573         -6.27631806         -1.62195153
     6        -10.26604235         -7.91784415         -2.25895160
     6        -11.04562738         -8.27848967         -4.73243357
     6         -9.82954963         -7.04426227         -6.75222903
     6        -10.56871618         -7.41729378         -9.32411787
     6         -9.36491522         -6.22068584        -11.27054796
     6         -7.29523477         -4.51985738        -10.82790914
     6         -6.51920814         -4.11347528         -8.25307173
     6         -7.77618833         -5.38058482         -6.20957181
     6         -6.72668039         -3.59411369        -15.44618919
     6         -7.48689138         -5.94160723          1.00794313
     6         -5.69098070         -2.51495627        -17.50856714
     6         -8.95174488         -6.44572605          3.05562236
     7         -8.20235695         -6.32723881          5.53186732
     7         -6.66231583         -3.09370180        -20.00935212
     8         -5.60639183         -2.02280334        -21.77306866
     8         -8.42930871         -4.57336211        -20.23481106
     1         -2.98292418         -0.59696373        -13.70492578
     1         -1.68102977          0.09963781         -9.30563823
     1         -2.21648487         -0.71168334         -4.73951014
     1         -4.37019283         -2.84852425         -1.26698958
     1        -11.19956686         -8.98997273         -0.76296832
     1        -12.60182590         -9.57621001         -5.14046127
     1        -12.14074022         -8.69944442         -9.72022403
     1        -10.00751947         -6.57672400        -13.19387488
     1         -8.28560819         -4.87423262        -15.87381869
     1         -5.57857333         -5.23455975          1.36834887
     1         -4.12926440         -1.18126833        -17.59660892
     1        -10.91429759         -7.05502295          2.81317378
     1         -9.54020358         -6.13153439          6.88439481
     1         -6.50941139         -5.53110790          5.94600360

 Electric dipole moment (dipole orientation):
 (Debye = 10**-18 statcoulomb cm , SI units = C m)
                  (au)            (Debye)         (10**-30 SI)
   Tot        0.458464D+01      0.116530D+02      0.388702D+02
   x          0.000000D+00      0.000000D+00      0.000000D+00
   y          0.000000D+00      0.000000D+00      0.000000D+00
   z          0.458464D+01      0.116530D+02      0.388702D+02

 Dipole polarizability, Alpha (dipole orientation).
 (esu units = cm**3 , SI units = C**2 m**2 J**-1)
 Alpha(0;0):
               (au)            (10**-24 esu)      (10**-40 SI)
   iso        0.336585D+03      0.498768D+02      0.554954D+02
   aniso      0.517771D+03      0.767258D+02      0.853689D+02
   xx         0.199357D+03      0.295416D+02      0.328695D+02
   yx         0.100908D+03      0.149531D+02      0.166375D+02
   yy         0.169233D+03      0.250777D+02      0.279027D+02
   zx        -0.490444D+02     -0.726763D+01     -0.808633D+01
   zy        -0.834876D+02     -0.123716D+02     -0.137652D+02
   zz         0.641167D+03      0.950111D+02      0.105714D+03

 First dipole hyperpolarizability, Beta (dipole orientation).
 ||, _|_  parallel and perpendicular components, (z) with respect to z axis,
 vector components x,y,z.  Values do not include the 1/n! factor of 1/2.
 (esu units = statvolt**-1 cm**4 , SI units = C**3 m**3 J**-2)
 Beta(0;0,0):
               (au)            (10**-30 esu)      (10**-50 SI)
   || (z)    -0.999593D+04     -0.863570D+02     -0.320506D+02
   _|_(z)    -0.333198D+04     -0.287857D+02     -0.106835D+02
   x          0.136769D+04      0.118158D+02      0.438532D+01
   y          0.578737D+04      0.499984D+02      0.185564D+02
   z         -0.499796D+05     -0.431785D+03     -0.160253D+03
   ||         0.100664D+05      0.869662D+02      0.322766D+02
   xxx        0.334788D+02      0.289230D+00      0.107345D+00
   xxy        0.305420D+02      0.263859D+00      0.979288D-01
   yxy        0.287887D+02      0.248712D+00      0.923069D-01
   yyy        0.361441D+02      0.312257D+00      0.115891D+00
   xxz        0.106759D+03      0.922317D+00      0.342309D+00
   yxz       -0.139318D+02     -0.120360D+00     -0.446704D-01
   yyz       -0.161633D+03     -0.139638D+01     -0.518252D+00
   zxz        0.393631D+03      0.340066D+01      0.126212D+01
   zyz        0.186244D+04      0.160900D+02      0.597165D+01
   zzz       -0.166050D+05     -0.143454D+03     -0.532416D+02

 ----------------------------------------------------------------------
 Unable to Open any file for archive entry.
 1\1\GINC-N1532\SP\RB3LYP\CC-pVDZ\C20H14N2O2\KA_PR7831\15-Aug-2025\0\\#
 P b3lyp/cc-pvdz polar\\p3\\0,1\C,0,-7.1170523,2.8813039,-0.2574687\C,0
 ,-5.8585338,3.5246054,-0.2419277\C,0,-4.6759319,2.8165593,-0.1401091\C
 ,0,-4.6838196,1.4079505,-0.049515\C,0,-3.4736019,0.6543054,0.0680186\C
 ,0,-3.4900693,-0.7099798,0.1525104\C,0,-4.7144884,-1.4586122,0.1195282
 \C,0,-4.7401562,-2.8895691,0.1959212\C,0,-6.0017785,-3.5275768,0.17912
 13\C,0,-7.1889783,-2.8170017,0.104987\C,0,-7.1921251,-1.4113938,0.0192
 863\C,0,-8.4019629,-0.6561424,-0.0813763\C,0,-8.3926061,0.7074489,-0.1
 719782\C,0,-7.1637407,1.4519835,-0.167622\C,0,-5.93302,0.7127777,-0.06
 60606\C,0,-5.942931,-0.7202226,0.0224268\C,0,-8.340456,3.6612268,-0.36
 17395\C,0,-3.5087622,-3.6714398,0.2756172\C,0,-8.4535871,5.0016855,-0.
 4508519\C,0,-3.417984,-4.9458496,0.7380511\N,0,-2.2938711,-5.7297538,0
 .7266201\N,0,-9.7634148,5.6214673,-0.5483128\O,0,-9.7697048,6.8456853,
 -0.6238281\O,0,-10.7667086,4.9178727,-0.5508402\H,0,-5.8145398,4.61329
 69,-0.3105052\H,0,-3.7193809,3.345593,-0.1278963\H,0,-2.5238254,1.1953
 579,0.0961841\H,0,-2.5430246,-1.2392522,0.259084\H,0,-6.0456585,-4.618
 6967,0.1911045\H,0,-8.1428013,-3.3520833,0.0882418\H,0,-9.3536128,-1.1
 952584,-0.0855989\H,0,-9.3448657,1.2314265,-0.2472057\H,0,-9.2979741,3
 .1380786,-0.3721304\H,0,-2.5833631,-3.1990301,-0.0658554\H,0,-7.659053
 3,5.744552,-0.4611987\H,0,-4.2997802,-5.4506656,1.1461893\H,0,-2.24164
 46,-6.5107664,1.3680919\H,0,-1.4031905,-5.302423,0.4982069\\Version=ES
 64L-G16RevC.01\State=1-A\HF=-1030.4973626\RMSD=9.658e-09\Dipole=2.9541
 356,-3.4375265,0.6895342\Polar=346.0690397,-160.1368689,578.0994985,24
 .4175399,-49.1199358,85.5874497\HyperPolar=-3103.1720155,4644.1841656,
 -6484.8403047,8975.5036765,-483.8331754,662.2642733,-878.7958986,-45.3
 230194,49.5908556,9.6506799\Quadrupole=1.7274299,3.8762928,-5.6037227,
 6.285974,1.8346669,-5.455561\PG=C01 [X(C20H14N2O2)]\\@
 The archive entry for this job was punched.


 KNOWLEDGE IS OF TWO KINDS:  WE KNOW A SUBJECT OURSELVES OR WE KNOW 
 WHERE WE CAN FIND INFORMATION UPON IT.

                                    -- SAMUEL JOHNSON
 Job cpu time:       0 days  0 hours 45 minutes 47.7 seconds.
 Elapsed time:       0 days  0 hours  2 minutes 52.4 seconds.
 File lengths (MBytes):  RWF=     92 Int=      0 D2E=      0 Chk=     12 Scr=      1
 Normal termination of Gaussian 16 at Fri Aug 15 16:02:06 2025.
