 Entering Gaussian System, Link 0=g16
 Initial command:
 /opt/bwhpc/common/chem/gaussian/g16.C.01/x86_64-Intel-avx2-source/g16/l1.exe "/scratch/ka_pr7831.18368311/Gau-3724806.inp" -scrdir="/scratch/ka_pr7831.18368311/"
 Entering Link 1 = /opt/bwhpc/common/chem/gaussian/g16.C.01/x86_64-Intel-avx2-source/g16/l1.exe PID=   3724808.
  
 Copyright (c) 1988-2019, Gaussian, Inc.  All Rights Reserved.
  
 This is part of the Gaussian(R) 16 program.  It is based on
 the Gaussian(R) 09 system (copyright 2009, Gaussian, Inc.),
 the Gaussian(R) 03 system (copyright 2003, Gaussian, Inc.),
 the Gaussian(R) 98 system (copyright 1998, Gaussian, Inc.),
 the Gaussian(R) 94 system (copyright 1995, Gaussian, Inc.),
 the Gaussian 92(TM) system (copyright 1992, Gaussian, Inc.),
 the Gaussian 90(TM) system (copyright 1990, Gaussian, Inc.),
 the Gaussian 88(TM) system (copyright 1988, Gaussian, Inc.),
 the Gaussian 86(TM) system (copyright 1986, Carnegie Mellon
 University), and the Gaussian 82(TM) system (copyright 1983,
 Carnegie Mellon University). Gaussian is a federally registered
 trademark of Gaussian, Inc.
  
 This software contains proprietary and confidential information,
 including trade secrets, belonging to Gaussian, Inc.
  
 This software is provided under written license and may be
 used, copied, transmitted, or stored only in accord with that
 written license.
  
 The following legend is applicable only to US Government
 contracts under FAR:
  
                    RESTRICTED RIGHTS LEGEND
  
 Use, reproduction and disclosure by the US Government is
 subject to restrictions as set forth in subparagraphs (a)
 and (c) of the Commercial Computer Software - Restricted
 Rights clause in FAR 52.227-19.
  
 Gaussian, Inc.
 340 Quinnipiac St., Bldg. 40, Wallingford CT 06492
  
  
 ---------------------------------------------------------------
 Warning -- This program may not be used in any manner that
 competes with the business of Gaussian, Inc. or will provide
 assistance to any competitor of Gaussian, Inc.  The licensee
 of this program is prohibited from giving any competitor of
 Gaussian, Inc. access to this program.  By using this program,
 the user acknowledges that Gaussian, Inc. is engaged in the
 business of creating and licensing software in the field of
 computational chemistry and represents and warrants to the
 licensee that it is not a competitor of Gaussian, Inc. and that
 it will not use this program in any manner prohibited above.
 ---------------------------------------------------------------
  

 Cite this work as:
 Gaussian 16, Revision C.01,
 M. J. Frisch, G. W. Trucks, H. B. Schlegel, G. E. Scuseria, 
 M. A. Robb, J. R. Cheeseman, G. Scalmani, V. Barone, 
 G. A. Petersson, H. Nakatsuji, X. Li, M. Caricato, A. V. Marenich, 
 J. Bloino, B. G. Janesko, R. Gomperts, B. Mennucci, H. P. Hratchian, 
 J. V. Ortiz, A. F. Izmaylov, J. L. Sonnenberg, D. Williams-Young, 
 F. Ding, F. Lipparini, F. Egidi, J. Goings, B. Peng, A. Petrone, 
 T. Henderson, D. Ranasinghe, V. G. Zakrzewski, J. Gao, N. Rega, 
 G. Zheng, W. Liang, M. Hada, M. Ehara, K. Toyota, R. Fukuda, 
 J. Hasegawa, M. Ishida, T. Nakajima, Y. Honda, O. Kitao, H. Nakai, 
 T. Vreven, K. Throssell, J. A. Montgomery, Jr., J. E. Peralta, 
 F. Ogliaro, M. J. Bearpark, J. J. Heyd, E. N. Brothers, K. N. Kudin, 
 V. N. Staroverov, T. A. Keith, R. Kobayashi, J. Normand, 
 K. Raghavachari, A. P. Rendell, J. C. Burant, S. S. Iyengar, 
 J. Tomasi, M. Cossi, J. M. Millam, M. Klene, C. Adamo, R. Cammi, 
 J. W. Ochterski, R. L. Martin, K. Morokuma, O. Farkas, 
 J. B. Foresman, and D. J. Fox, Gaussian, Inc., Wallingford CT, 2019.
 
 ******************************************
 Gaussian 16:  ES64L-G16RevC.01  3-Jul-2019
                15-Aug-2025 
 ******************************************
 %chk=b3.chk
 %mem=10GB
 %nprocs=16
 Will use up to   16 processors via shared memory.
 ----------------------
 #P b3lyp/cc-pvdz polar
 ----------------------
 1/38=1,172=1/1;
 2/12=2,17=6,18=5,40=1/2;
 3/5=16,11=2,25=1,30=1,74=-5/1,2,3;
 4//1;
 5/5=2,38=5,98=1/2;
 8/6=4,10=90,11=11/1;
 10/6=1,13=10/2;
 6/7=2,8=2,9=2,10=2,28=1/1;
 99/5=1,9=1/99;
 Leave Link    1 at Fri Aug 15 18:36:20 2025, MaxMem=  1342177280 cpu:               0.4 elap:               0.0
 (Enter /opt/bwhpc/common/chem/gaussian/g16.C.01/x86_64-Intel-avx2-source/g16/l101.exe)
 -
 p
 -
 Symbolic Z-matrix:
 Charge =  0 Multiplicity = 1
 C                    -7.10551   2.73911  -0.26296 
 C                    -5.8432    3.3744   -0.26659 
 C                    -4.66472   2.66133  -0.14677 
 C                    -4.6817    1.25692  -0.01266 
 C                    -3.47443   0.49678   0.10414 
 C                    -3.49905  -0.86305   0.2354 
 C                    -4.7333   -1.59729   0.2709 
 C                    -4.77244  -3.0192    0.41555 
 C                    -6.03305  -3.65352   0.4239 
 C                    -7.21615  -2.94341   0.28013 
 C                    -7.20856  -1.5431    0.14014 
 C                    -8.41442  -0.78311   0.00994 
 C                    -8.39528   0.57667  -0.11725 
 C                    -7.16126   1.31446  -0.12893 
 C                    -5.93623   0.57161  -0.00011 
 C                    -5.95641  -0.85669   0.1391 
 C                    -8.32488   3.52335  -0.39439 
 C                    -3.54253  -3.80169   0.56685 
 C                    -8.42843   4.86037  -0.52525 
 C                    -3.40526  -5.10161   0.24021 
 O                    -2.24567  -5.76695   0.45254 
 N                    -9.7353    5.48527  -0.64664 
 O                    -9.73297   6.70587  -0.76188 
 O                    -10.74208   4.78761  -0.62915 
 H                    -5.79177   4.4601   -0.36843 
 H                    -3.70468   3.18397  -0.15599 
 H                    -2.51965   1.02903   0.08081 
 H                    -2.55447  -1.40283   0.30557 
 H                    -6.08329  -4.73313   0.58165 
 H                    -8.17387  -3.47113   0.29785 
 H                    -9.36923  -1.31637   0.01426 
 H                    -9.3438    1.10418  -0.21267 
 H                    -9.28575   3.00632  -0.39096 
 H                    -2.65171  -3.31398   0.97032 
 H                    -7.62936   5.59782  -0.55658 
 H                    -4.21782  -5.67632  -0.22073 
 H                    -2.30839  -6.66057   0.09464 
 
 ITRead=  0  0  0  0  0  0  0  0  0  0  0  0  0  0  0  0  0  0  0  0
 ITRead=  0  0  0  0  0  0  0  0  0  0  0  0  0  0  0  0  0
 MicOpt= -1 -1 -1 -1 -1 -1 -1 -1 -1 -1 -1 -1 -1 -1 -1 -1 -1 -1 -1 -1
 MicOpt= -1 -1 -1 -1 -1 -1 -1 -1 -1 -1 -1 -1 -1 -1 -1 -1 -1
 NAtoms=     37 NQM=       37 NQMF=       0 NMMI=      0 NMMIF=      0
                NMic=       0 NMicF=      0.
                    Isotopes and Nuclear Properties:
 (Nuclear quadrupole moments (NQMom) in fm**2, nuclear magnetic moments (NMagM)
  in nuclear magnetons)

  Atom         1           2           3           4           5           6           7           8           9          10
 IAtWgt=          12          12          12          12          12          12          12          12          12          12
 AtmWgt=  12.0000000  12.0000000  12.0000000  12.0000000  12.0000000  12.0000000  12.0000000  12.0000000  12.0000000  12.0000000
 NucSpn=           0           0           0           0           0           0           0           0           0           0
 AtZEff=  -0.0000000  -0.0000000  -0.0000000  -0.0000000  -0.0000000  -0.0000000  -0.0000000  -0.0000000  -0.0000000  -0.0000000
 NQMom=    0.0000000   0.0000000   0.0000000   0.0000000   0.0000000   0.0000000   0.0000000   0.0000000   0.0000000   0.0000000
 NMagM=    0.0000000   0.0000000   0.0000000   0.0000000   0.0000000   0.0000000   0.0000000   0.0000000   0.0000000   0.0000000
 AtZNuc=   6.0000000   6.0000000   6.0000000   6.0000000   6.0000000   6.0000000   6.0000000   6.0000000   6.0000000   6.0000000

  Atom        11          12          13          14          15          16          17          18          19          20
 IAtWgt=          12          12          12          12          12          12          12          12          12          12
 AtmWgt=  12.0000000  12.0000000  12.0000000  12.0000000  12.0000000  12.0000000  12.0000000  12.0000000  12.0000000  12.0000000
 NucSpn=           0           0           0           0           0           0           0           0           0           0
 AtZEff=  -0.0000000  -0.0000000  -0.0000000  -0.0000000  -0.0000000  -0.0000000  -0.0000000  -0.0000000  -0.0000000  -0.0000000
 NQMom=    0.0000000   0.0000000   0.0000000   0.0000000   0.0000000   0.0000000   0.0000000   0.0000000   0.0000000   0.0000000
 NMagM=    0.0000000   0.0000000   0.0000000   0.0000000   0.0000000   0.0000000   0.0000000   0.0000000   0.0000000   0.0000000
 AtZNuc=   6.0000000   6.0000000   6.0000000   6.0000000   6.0000000   6.0000000   6.0000000   6.0000000   6.0000000   6.0000000

  Atom        21          22          23          24          25          26          27          28          29          30
 IAtWgt=          16          14          16          16           1           1           1           1           1           1
 AtmWgt=  15.9949146  14.0030740  15.9949146  15.9949146   1.0078250   1.0078250   1.0078250   1.0078250   1.0078250   1.0078250
 NucSpn=           0           2           0           0           1           1           1           1           1           1
 AtZEff=  -0.0000000  -0.0000000  -0.0000000  -0.0000000  -0.0000000  -0.0000000  -0.0000000  -0.0000000  -0.0000000  -0.0000000
 NQMom=    0.0000000   2.0440000   0.0000000   0.0000000   0.0000000   0.0000000   0.0000000   0.0000000   0.0000000   0.0000000
 NMagM=    0.0000000   0.4037610   0.0000000   0.0000000   2.7928460   2.7928460   2.7928460   2.7928460   2.7928460   2.7928460
 AtZNuc=   8.0000000   7.0000000   8.0000000   8.0000000   1.0000000   1.0000000   1.0000000   1.0000000   1.0000000   1.0000000

  Atom        31          32          33          34          35          36          37
 IAtWgt=           1           1           1           1           1           1           1
 AtmWgt=   1.0078250   1.0078250   1.0078250   1.0078250   1.0078250   1.0078250   1.0078250
 NucSpn=           1           1           1           1           1           1           1
 AtZEff=  -0.0000000  -0.0000000  -0.0000000  -0.0000000  -0.0000000  -0.0000000  -0.0000000
 NQMom=    0.0000000   0.0000000   0.0000000   0.0000000   0.0000000   0.0000000   0.0000000
 NMagM=    2.7928460   2.7928460   2.7928460   2.7928460   2.7928460   2.7928460   2.7928460
 AtZNuc=   1.0000000   1.0000000   1.0000000   1.0000000   1.0000000   1.0000000   1.0000000
 Leave Link  101 at Fri Aug 15 18:36:20 2025, MaxMem=  1342177280 cpu:               1.6 elap:               0.1
 (Enter /opt/bwhpc/common/chem/gaussian/g16.C.01/x86_64-Intel-avx2-source/g16/l202.exe)
                          Input orientation:                          
 ---------------------------------------------------------------------
 Center     Atomic      Atomic             Coordinates (Angstroms)
 Number     Number       Type             X           Y           Z
 ---------------------------------------------------------------------
      1          6           0       -7.105512    2.739110   -0.262962
      2          6           0       -5.843200    3.374401   -0.266591
      3          6           0       -4.664723    2.661330   -0.146770
      4          6           0       -4.681698    1.256922   -0.012659
      5          6           0       -3.474433    0.496777    0.104136
      6          6           0       -3.499049   -0.863050    0.235402
      7          6           0       -4.733304   -1.597292    0.270901
      8          6           0       -4.772442   -3.019201    0.415550
      9          6           0       -6.033054   -3.653519    0.423904
     10          6           0       -7.216152   -2.943414    0.280131
     11          6           0       -7.208557   -1.543099    0.140138
     12          6           0       -8.414420   -0.783111    0.009941
     13          6           0       -8.395285    0.576672   -0.117252
     14          6           0       -7.161259    1.314461   -0.128930
     15          6           0       -5.936229    0.571608   -0.000108
     16          6           0       -5.956408   -0.856686    0.139099
     17          6           0       -8.324880    3.523346   -0.394389
     18          6           0       -3.542530   -3.801690    0.566854
     19          6           0       -8.428432    4.860366   -0.525248
     20          6           0       -3.405262   -5.101607    0.240215
     21          8           0       -2.245669   -5.766950    0.452542
     22          7           0       -9.735296    5.485266   -0.646643
     23          8           0       -9.732972    6.705873   -0.761884
     24          8           0      -10.742084    4.787615   -0.629151
     25          1           0       -5.791767    4.460096   -0.368427
     26          1           0       -3.704680    3.183970   -0.155987
     27          1           0       -2.519647    1.029032    0.080813
     28          1           0       -2.554470   -1.402831    0.305569
     29          1           0       -6.083294   -4.733126    0.581653
     30          1           0       -8.173868   -3.471127    0.297854
     31          1           0       -9.369228   -1.316365    0.014265
     32          1           0       -9.343796    1.104183   -0.212668
     33          1           0       -9.285747    3.006319   -0.390963
     34          1           0       -2.651714   -3.313979    0.970323
     35          1           0       -7.629360    5.597821   -0.556584
     36          1           0       -4.217817   -5.676320   -0.220734
     37          1           0       -2.308390   -6.660570    0.094644
 ---------------------------------------------------------------------
                    Distance matrix (angstroms):
                    1          2          3          4          5
     1  C    0.000000
     2  C    1.413167   0.000000
     3  C    2.444791   1.382619   0.000000
     4  C    2.852089   2.428433   1.410899   0.000000
     5  C    4.283405   3.745560   2.482949   1.431415   0.000000
     6  C    5.121572   4.868576   3.731769   2.440178   1.366370
     7  C    4.971595   5.122353   4.279604   2.868728   2.449018
     8  C    6.249939   6.518435   5.709312   4.298468   3.760839
     9  C    6.518256   7.064311   6.486549   5.111671   4.886077
    10  C    5.709490   6.488351   6.172940   4.914469   5.085897
    11  C    4.302374   5.119711   4.922462   3.774716   4.255123
    12  C    3.767460   4.896177   5.094012   4.253876   5.103965
    13  C    2.522079   3.789819   4.273612   3.776825   4.926477
    14  C    1.432026   2.449405   2.836736   2.482953   3.783598
    15  C    2.476768   2.816970   2.450546   1.429567   2.465138
    16  C    3.796293   4.251999   3.758538   2.472904   2.827240
    17  C    1.455732   2.489428   3.768440   4.307572   5.738944
    18  C    7.494365   7.581821   6.598425   5.217576   4.323837
    19  C    2.513690   2.993062   4.375444   5.223559   6.631677
    20  C    8.684577   8.834202   7.873957   6.490310   5.600465
    21  O    9.822580   9.850060   8.789021   7.448853   6.392615
    22  N    3.821563   4.443940   5.825392   6.619644   8.040342
    23  O    4.784107   5.145323   6.513359   7.467783   8.858453
    24  O    4.189883   5.111525   6.456632   7.040891   8.471585
    25  H    2.167682   1.091673   2.134226   3.408688   4.615328
    26  H    3.431473   2.149829   1.093124   2.165323   2.709554
    27  H    4.906395   4.082579   2.705095   2.176036   1.093369
    28  H    6.179878   5.827956   4.601650   3.420622   2.120241
    29  H    7.588980   8.155315   7.564451   6.180481   5.863963
    30  H    6.326369   7.253405   7.079465   5.886096   6.153575
    31  H    4.652756   5.874951   6.162821   5.347474   6.167996
    32  H    2.772261   4.172646   4.931813   4.668886   5.909207
    33  H    2.200274   3.464402   4.640314   4.939714   6.349354
    34  H    7.615589   7.513319   6.403469   5.097079   3.993621
    35  H    2.921106   2.866716   4.192852   5.275223   6.612157
    36  H    8.897192   9.195626   8.349946   6.951857   6.226178
    37  H   10.559083  10.645469   9.618129   8.266243   7.251714
                    6          7          8          9         10
     6  C    0.000000
     7  C    1.436578   0.000000
     8  C    2.510572   1.429784   0.000000
     9  C    3.774047   2.437382   1.411230   0.000000
    10  C    4.259902   2.824299   2.448632   1.387314   0.000000
    11  C    3.772531   2.479297   2.861710   2.432325   1.407316
    12  C    4.921188   3.779101   4.292857   3.752534   2.485108
    13  C    5.115690   4.276316   5.132170   4.875192   3.733534
    14  C    4.276222   3.812235   4.978306   5.124383   4.277832
    15  C    2.837878   2.494915   3.797510   4.247453   3.751282
    16  C    2.459254   1.435916   2.480862   2.812342   2.441573
    17  C    6.551774   6.289909   7.488708   7.578223   6.595699
    18  C    2.957593   2.522876   1.465560   2.499020   3.783430
    19  C    7.591764   7.482590   8.737215   8.895221   7.938340
    20  C    4.239598   3.747648   2.497267   3.005993   4.379757
    21  O    5.066196   4.858742   3.733105   4.337245   5.719071
    22  N    8.942588   8.719199   9.903743   9.918168   8.845770
    23  O    9.856215   9.747096  10.980450  11.064018  10.026412
    24  O    9.227081   8.813771   9.883036   9.722995   8.545631
    25  H    5.827268   6.182316   7.589040   8.155781   7.567131
    26  H    4.071098   4.909253   6.320293   7.246300   7.075696
    27  H    2.136141   3.440056   4.644925   5.864130   6.154447
    28  H    1.090192   2.187770   2.746662   4.144894   4.909717
    29  H    4.666444   3.428192   2.164131   1.092227   2.139474
    30  H    5.353494   3.917840   3.433335   2.152264   1.093625
    31  H    5.891808   4.651514   4.918447   4.093917   2.711773
    32  H    6.183190   5.365486   6.188233   5.831120   4.599213
    33  H    6.989293   6.508151   7.571478   7.456371   6.335055
    34  H    2.695392   2.787332   2.211821   3.441993   4.631174
    35  H    7.709058   7.800098   9.130175   9.439113   8.592063
    36  H    4.887971   4.140761   2.787965   2.793272   4.087744
    37  H    5.920196   5.616766   4.408412   4.798321   6.159365
                   11         12         13         14         15
    11  C    0.000000
    12  C    1.431306   0.000000
    13  C    2.442949   1.365853   0.000000
    14  C    2.870589   2.447346   1.437806   0.000000
    15  C    2.471937   2.824321   2.461849   1.438445   0.000000
    16  C    1.427950   2.462501   2.840483   2.497475   1.435203
    17  C    5.215435   4.326323   2.960516   2.510709   3.817574
    18  C    4.327017   5.758236   6.571703   6.305103   5.017667
    19  C    6.552495   5.668814   4.303207   3.786322   4.988015
    20  C    5.209419   6.617711   7.567758   7.443770   6.216826
    21  O    6.524474   7.942797   8.853472   8.639879   7.348635
    22  N    7.510083   6.439593   5.115680   4.928418   6.244594
    23  O    8.673630   7.643244   6.306510   6.006802   7.254294
    24  O    7.290786   6.071198   4.847839   5.013514   6.423913
    25  H    6.189046   5.874750   4.682134   3.439170   3.908564
    26  H    5.891522   6.160107   5.366683   3.929853   3.439266
    27  H    5.348388   6.167433   5.896353   4.655107   3.448017
    28  H    4.659139   5.900039   6.181612   5.366095   3.927868
    29  H    3.411367   4.622080   5.833328   6.183869   5.338565
    30  H    2.161942   2.714073   4.075048   4.910130   4.630283
    31  H    2.176179   1.093635   2.132944   3.437568   3.917924
    32  H    3.419330   2.115460   1.089516   2.194242   3.455478
    33  H    5.029313   3.908927   2.602120   2.728460   4.159309
    34  H    4.958834   6.366820   7.022007   6.554907   5.179532
    35  H    7.187158   6.453957   5.098195   4.330033   5.332840
    36  H    5.114516   6.450441   7.520761   7.585730   6.483689
    37  H    7.085352   8.475570   9.459009   9.338171   8.091637
                   16         17         18         19         20
    16  C    0.000000
    17  C    5.007888   0.000000
    18  C    3.831819   8.800626   0.000000
    19  C    6.263939   1.347393  10.004796   0.000000
    20  C    4.953578   9.949633   1.347338  11.182981   0.000000
    21  O    6.162672  11.134797   2.357363  12.333793   1.353668
    22  N    7.424132   2.429410  11.228111   1.453661  12.366800
    23  O    8.500971   3.499465  12.267682   2.272382  13.433567
    24  O    7.439827   2.737949  11.271210   2.317127  12.344289
    25  H    5.343488   2.700895   8.613416   2.671481   9.873805
    26  H    4.635112   4.638778   7.024831   5.025981   8.300447
    27  H    3.920543   6.336257   4.961693   7.068251   6.196326
    28  H    3.449518   7.619370   2.607500   8.626780   3.795927
    29  H    3.903683   8.610848   2.706155   9.937806   2.724741
    30  H    3.431856   7.030268   4.650906   8.375922   5.039980
    31  H    3.445900   4.967944   6.358665   6.271218   7.067391
    32  H    3.929776   2.631267   7.637404   3.878725   8.601344
    33  H    5.127208   1.091144   8.958289   2.047074  10.035784
    34  H    4.201217   8.988674   1.092795  10.120628   2.072802
    35  H    6.703984   2.193969  10.310922   1.087813  11.530640
    36  H    5.136249  10.076308   2.142555  11.350936   1.096820
    37  H    6.855296  11.838473   3.149488  13.060288   1.911722
                   21         22         23         24         25
    21  O    0.000000
    22  N   13.561529   0.000000
    23  O   14.598146   1.226037   0.000000
    24  O   13.592570   1.225009   2.171553   0.000000
    25  H   10.855472   4.084090   4.553177   4.967986   0.000000
    26  H    9.089444   6.473410   7.007940   7.233300   2.455517
    27  H    6.811653   8.511921   9.217849   9.068598   4.762435
    28  H    4.377498   9.995842  10.882162  10.306908   6.731143
    29  H    3.976534  10.920685  12.082050  10.668405   9.246782
    30  H    6.359109   9.140411  10.350130   8.698384   8.307987
    31  H    8.410998   6.843463   8.067901   6.289458   6.805306
    32  H    9.901433   4.419898   5.641988   3.961861   4.889103
    33  H   11.280268   2.532320   3.744902   2.313151   3.784425
    34  H    2.539692  11.411328  12.391214  11.560632   8.490490
    35  H   12.615882   2.110863   2.386443   3.217258   2.169463
    36  H    2.085876  12.458129  13.565710  12.338022  10.258951
    37  H    0.964666  14.255867  15.314041  14.237696  11.662657
                   26         27         28         29         30
    26  H    0.000000
    27  H    2.470655   0.000000
    28  H    4.751291   2.442476   0.000000
    29  H    8.299538   6.793591   4.860009   0.000000
    30  H    8.029318   7.229714   5.987950   2.458390   0.000000
    31  H    7.236651   7.240310   6.821530   4.774259   2.480385
    32  H    6.010688   6.830870   7.255938   6.733200   4.750034
    33  H    5.588836   7.064867   8.076872   8.432123   6.608181
    34  H    6.678372   4.435134   2.025794   3.733736   5.565168
    35  H    4.624962   6.883987   8.689474  10.507824   9.125370
    36  H    8.875373   6.923616   4.615888   2.239072   4.558744
    37  H    9.946226   7.692515   5.267718   4.266394   6.679646
                   31         32         33         34         35
    31  H    0.000000
    32  H    2.431295   0.000000
    33  H    4.342439   1.911356   0.000000
    34  H    7.073154   8.105774   9.263350   0.000000
    35  H    7.152551   4.821862   3.080086  10.321269   0.000000
    36  H    6.752886   8.500056  10.054905   3.074402  11.783789
    37  H    8.855643  10.482497  11.931808   3.476256  13.379274
                   36         37
    36  H    0.000000
    37  H    2.171203   0.000000
 Stoichiometry    C20H13NO3
 Framework group  C1[X(C20H13NO3)]
 Deg. of freedom   105
 Full point group                 C1      NOp   1
 Largest Abelian subgroup         C1      NOp   1
 Largest concise Abelian subgroup C1      NOp   1
                         Standard orientation:                         
 ---------------------------------------------------------------------
 Center     Atomic      Atomic             Coordinates (Angstroms)
 Number     Number       Type             X           Y           Z
 ---------------------------------------------------------------------
      1          6           0        2.461705    0.513118    0.002577
      2          6           0        2.378305    1.923822    0.002426
      3          6           0        1.164199    2.585126   -0.013682
      4          6           0       -0.049165    1.865400   -0.033125
      5          6           0       -1.317940    2.528041   -0.041274
      6          6           0       -2.488825    1.824073   -0.061819
      7          6           0       -2.507552    0.387792   -0.084252
      8          6           0       -3.725860   -0.359968   -0.113606
      9          6           0       -3.642896   -1.768750   -0.118176
     10          6           0       -2.426884   -2.435348   -0.078147
     11          6           0       -1.211828   -1.725743   -0.052868
     12          6           0        0.057315   -2.387142   -0.031306
     13          6           0        1.230536   -1.687971   -0.015022
     14          6           0        1.250293   -0.250301   -0.016613
     15          6           0       -0.013547    0.436283   -0.037476
     16          6           0       -1.246342   -0.298229   -0.060165
     17          6           0        3.758598   -0.147802    0.022868
     18          6           0       -5.028304    0.310793   -0.153434
     19          6           0        4.973866    0.433832    0.039983
     20          6           0       -6.187367   -0.219414    0.283340
     21          8           0       -7.359228    0.448735    0.170482
     22          7           0        6.176336   -0.382744    0.059966
     23          8           0        7.236997    0.232022    0.075078
     24          8           0        6.077045   -1.603722    0.061154
     25          1           0        3.296996    2.513349    0.017085
     26          1           0        1.135353    3.677866   -0.010592
     27          1           0       -1.334608    3.621164   -0.025122
     28          1           0       -3.432276    2.370253   -0.051559
     29          1           0       -4.561961   -2.354640   -0.188972
     30          1           0       -2.404335   -3.528685   -0.089205
     31          1           0        0.074840   -3.480634   -0.028455
     32          1           0        2.167650   -2.243503    0.000715
     33          1           0        3.793210   -1.238394    0.025055
     34          1           0       -5.089705    1.322827   -0.561134
     35          1           0        5.212520    1.495142    0.041407
     36          1           0       -6.234868   -1.206883    0.758381
     37          1           0       -8.065519   -0.050607    0.597556
 ---------------------------------------------------------------------
 Rotational constants (GHZ):           0.7461396           0.0993129           0.0877659
 Leave Link  202 at Fri Aug 15 18:36:20 2025, MaxMem=  1342177280 cpu:               0.1 elap:               0.0
 (Enter /opt/bwhpc/common/chem/gaussian/g16.C.01/x86_64-Intel-avx2-source/g16/l301.exe)
 Standard basis: CC-pVDZ (5D, 7F)
 Ernie: Thresh=  0.10000D-02 Tol=  0.10000D-05 Strict=F.
 Ernie:  48 primitive shells out of 593 were deleted.
 There are   425 symmetry adapted cartesian basis functions of A   symmetry.
 There are   401 symmetry adapted basis functions of A   symmetry.
   401 basis functions,   883 primitive gaussians,   425 cartesian basis functions
    82 alpha electrons       82 beta electrons
       nuclear repulsion energy      1791.0650482067 Hartrees.
 IExCor=  402 DFT=T Ex+Corr=B3LYP ExCW=0 ScaHFX=  0.200000
 ScaDFX=  0.800000  0.720000  1.000000  0.810000 ScalE2=  1.000000  1.000000
 IRadAn=      5 IRanWt=     -1 IRanGd=            0 ICorTp=0 IEmpDi=  4
 NAtoms=   37 NActive=   37 NUniq=   37 SFac= 1.00D+00 NAtFMM=   60 NAOKFM=F Big=F
 Integral buffers will be    131072 words long.
 Raffenetti 2 integral format.
 Two-electron integral symmetry is turned on.
 Leave Link  301 at Fri Aug 15 18:36:20 2025, MaxMem=  1342177280 cpu:               0.8 elap:               0.1
 (Enter /opt/bwhpc/common/chem/gaussian/g16.C.01/x86_64-Intel-avx2-source/g16/l302.exe)
 NPDir=0 NMtPBC=     1 NCelOv=     1 NCel=       1 NClECP=     1 NCelD=      1
         NCelK=      1 NCelE2=     1 NClLst=     1 CellRange=     0.0.
 One-electron integrals computed using PRISM.
 One-electron integral symmetry used in STVInt
 NBasis=   401 RedAO= T EigKep=  6.97D-05  NBF=   401
 NBsUse=   401 1.00D-06 EigRej= -1.00D+00 NBFU=   401
 Precomputing XC quadrature grid using
 IXCGrd= 4 IRadAn=           5 IRanWt=          -1 IRanGd=           0 AccXCQ= 0.00D+00.
 Generated NRdTot=       0 NPtTot=           0 NUsed=           0 NTot=          32
 NSgBfM=   417   417   417   417   417 MxSgAt=    37 MxSgA2=    37.
 Leave Link  302 at Fri Aug 15 18:36:21 2025, MaxMem=  1342177280 cpu:               9.3 elap:               0.6
 (Enter /opt/bwhpc/common/chem/gaussian/g16.C.01/x86_64-Intel-avx2-source/g16/l303.exe)
 DipDrv:  MaxL=1.
 Leave Link  303 at Fri Aug 15 18:36:21 2025, MaxMem=  1342177280 cpu:               1.1 elap:               0.1
 (Enter /opt/bwhpc/common/chem/gaussian/g16.C.01/x86_64-Intel-avx2-source/g16/l401.exe)
 ExpMin= 1.22D-01 ExpMax= 1.17D+04 ExpMxC= 4.01D+02 IAcc=3 IRadAn=         5 AccDes= 0.00D+00
 Harris functional with IExCor=  402 and IRadAn=       5 diagonalized for initial guess.
 HarFok:  IExCor=  402 AccDes= 0.00D+00 IRadAn=         5 IDoV= 1 UseB2=F ITyADJ=14
 ICtDFT=  3500011 ScaDFX=  1.000000  1.000000  1.000000  1.000000
 FoFCou: FMM=F IPFlag=           0 FMFlag=      100000 FMFlg1=           0
         NFxFlg=           0 DoJE=T BraDBF=F KetDBF=T FulRan=T
         wScrn=  0.000000 ICntrl=       500 IOpCl=  0 I1Cent=   200000004 NGrid=           0
         NMat0=    1 NMatS0=      1 NMatT0=    0 NMatD0=    1 NMtDS0=    0 NMtDT0=    0
 Petite list used in FoFCou.
 Harris En= -1050.33375452138    
 JPrj=0 DoOrth=F DoCkMO=F.
 Leave Link  401 at Fri Aug 15 18:36:23 2025, MaxMem=  1342177280 cpu:              33.0 elap:               2.1
 (Enter /opt/bwhpc/common/chem/gaussian/g16.C.01/x86_64-Intel-avx2-source/g16/l502.exe)
 Integral symmetry usage will be decided dynamically.
 Closed shell SCF:
 Using DIIS extrapolation, IDIIS=  1040.
 NGot=  1342177280 LenX=  1341804006 LenY=  1341622940
 Requested convergence on RMS density matrix=1.00D-08 within 128 cycles.
 Requested convergence on MAX density matrix=1.00D-06.
 Requested convergence on             energy=1.00D-06.
 No special actions if energy rises.
 Fock matrices will be formed incrementally for  20 cycles.
 Integral accuracy reduced to 1.0D-05 until final iterations.

 Cycle   1  Pass 0  IDiag  1:
 FoFJK:  IHMeth= 1 ICntrl=       0 DoSepK=F KAlg= 0 I1Cent=           0 FoldK=F
 IRaf= 760000000 NMat=       1 IRICut=       1 DoRegI=T DoRafI=F ISym2E= 0 IDoP0=0 IntGTp=1.
 FoFCou: FMM=F IPFlag=           0 FMFlag=      100000 FMFlg1=           0
         NFxFlg=           0 DoJE=F BraDBF=F KetDBF=F FulRan=T
         wScrn=  0.000000 ICntrl=         0 IOpCl=  0 I1Cent=           0 NGrid=           0
         NMat0=    1 NMatS0=      1 NMatT0=    0 NMatD0=    1 NMtDS0=    0 NMtDT0=    0
 Symmetry not used in FoFCou.
 E= -1049.86035543671    
 DIIS: error= 5.31D-02 at cycle   1 NSaved=   1.
 NSaved= 1 IEnMin= 1 EnMin= -1049.86035543671     IErMin= 1 ErrMin= 5.31D-02
 ErrMax= 5.31D-02  0.00D+00 EMaxC= 1.00D-01 BMatC= 5.05D-01 BMatP= 5.05D-01
 IDIUse=3 WtCom= 4.69D-01 WtEn= 5.31D-01
 Coeff-Com:  0.100D+01
 Coeff-En:   0.100D+01
 Coeff:      0.100D+01
 Gap=     0.086 Goal=   None    Shift=    0.000
 GapD=    0.086 DampG=0.500 DampE=0.500 DampFc=0.2500 IDamp=-1.
 Damping current iteration by 2.50D-01
 RMSDP=7.74D-03 MaxDP=2.52D-01              OVMax= 3.41D-01

 Cycle   2  Pass 0  IDiag  1:
 RMSU=  1.66D-03    CP:  9.51D-01
 E= -1050.03704239558     Delta-E=       -0.176686958873 Rises=F Damp=T
 DIIS: error= 1.92D-02 at cycle   2 NSaved=   2.
 NSaved= 2 IEnMin= 2 EnMin= -1050.03704239558     IErMin= 2 ErrMin= 1.92D-02
 ErrMax= 1.92D-02  0.00D+00 EMaxC= 1.00D-01 BMatC= 1.09D-01 BMatP= 5.05D-01
 IDIUse=3 WtCom= 8.08D-01 WtEn= 1.92D-01
 Coeff-Com: -0.636D+00 0.164D+01
 Coeff-En:   0.000D+00 0.100D+01
 Coeff:     -0.514D+00 0.151D+01
 Gap=     0.128 Goal=   None    Shift=    0.000
 RMSDP=4.33D-03 MaxDP=1.45D-01 DE=-1.77D-01 OVMax= 3.60D-01

 Cycle   3  Pass 0  IDiag  1:
 RMSU=  1.84D-03    CP:  8.29D-01  2.83D+00
 E= -1050.32443696205     Delta-E=       -0.287394566468 Rises=F Damp=F
 DIIS: error= 1.31D-02 at cycle   3 NSaved=   3.
 NSaved= 3 IEnMin= 3 EnMin= -1050.32443696205     IErMin= 3 ErrMin= 1.31D-02
 ErrMax= 1.31D-02  0.00D+00 EMaxC= 1.00D-01 BMatC= 3.22D-02 BMatP= 1.09D-01
 IDIUse=3 WtCom= 8.69D-01 WtEn= 1.31D-01
 Coeff-Com: -0.328D+00 0.801D+00 0.526D+00
 Coeff-En:   0.000D+00 0.000D+00 0.100D+01
 Coeff:     -0.285D+00 0.697D+00 0.588D+00
 Gap=     0.104 Goal=   None    Shift=    0.000
 RMSDP=8.15D-04 MaxDP=5.56D-02 DE=-2.87D-01 OVMax= 9.54D-02

 Cycle   4  Pass 0  IDiag  1:
 RMSU=  5.75D-04    CP:  8.42D-01  2.69D+00  7.52D-01
 E= -1050.34892198329     Delta-E=       -0.024485021238 Rises=F Damp=F
 DIIS: error= 6.19D-03 at cycle   4 NSaved=   4.
 NSaved= 4 IEnMin= 4 EnMin= -1050.34892198329     IErMin= 4 ErrMin= 6.19D-03
 ErrMax= 6.19D-03  0.00D+00 EMaxC= 1.00D-01 BMatC= 1.03D-02 BMatP= 3.22D-02
 IDIUse=3 WtCom= 9.38D-01 WtEn= 6.19D-02
 Coeff-Com: -0.101D+00 0.264D+00 0.366D+00 0.471D+00
 Coeff-En:   0.000D+00 0.000D+00 0.236D+00 0.764D+00
 Coeff:     -0.945D-01 0.247D+00 0.358D+00 0.489D+00
 Gap=     0.100 Goal=   None    Shift=    0.000
 RMSDP=3.39D-04 MaxDP=2.29D-02 DE=-2.45D-02 OVMax= 4.65D-02

 Cycle   5  Pass 0  IDiag  1:
 RMSU=  2.10D-04    CP:  8.42D-01  2.66D+00  8.23D-01  6.08D-01
 E= -1050.35671093570     Delta-E=       -0.007788952405 Rises=F Damp=F
 DIIS: error= 4.32D-03 at cycle   5 NSaved=   5.
 NSaved= 5 IEnMin= 5 EnMin= -1050.35671093570     IErMin= 5 ErrMin= 4.32D-03
 ErrMax= 4.32D-03  0.00D+00 EMaxC= 1.00D-01 BMatC= 2.60D-03 BMatP= 1.03D-02
 IDIUse=3 WtCom= 9.57D-01 WtEn= 4.32D-02
 Coeff-Com: -0.171D-01 0.571D-01 0.185D+00 0.371D+00 0.404D+00
 Coeff-En:   0.000D+00 0.000D+00 0.000D+00 0.198D+00 0.802D+00
 Coeff:     -0.164D-01 0.546D-01 0.177D+00 0.364D+00 0.421D+00
 Gap=     0.100 Goal=   None    Shift=    0.000
 RMSDP=1.52D-04 MaxDP=1.36D-02 DE=-7.79D-03 OVMax= 3.03D-02

 Cycle   6  Pass 0  IDiag  1:
 RMSU=  9.64D-05    CP:  8.41D-01  2.66D+00  8.17D-01  6.65D-01  4.69D-01
 E= -1050.35868106985     Delta-E=       -0.001970134151 Rises=F Damp=F
 DIIS: error= 1.67D-03 at cycle   6 NSaved=   6.
 NSaved= 6 IEnMin= 6 EnMin= -1050.35868106985     IErMin= 6 ErrMin= 1.67D-03
 ErrMax= 1.67D-03  0.00D+00 EMaxC= 1.00D-01 BMatC= 3.97D-04 BMatP= 2.60D-03
 IDIUse=3 WtCom= 9.83D-01 WtEn= 1.67D-02
 Coeff-Com: -0.132D-03 0.792D-02 0.783D-01 0.188D+00 0.310D+00 0.416D+00
 Coeff-En:   0.000D+00 0.000D+00 0.000D+00 0.000D+00 0.143D+00 0.857D+00
 Coeff:     -0.130D-03 0.779D-02 0.770D-01 0.185D+00 0.307D+00 0.423D+00
 Gap=     0.101 Goal=   None    Shift=    0.000
 RMSDP=5.37D-05 MaxDP=5.29D-03 DE=-1.97D-03 OVMax= 1.02D-02

 Cycle   7  Pass 0  IDiag  1:
 RMSU=  3.88D-05    CP:  8.41D-01  2.66D+00  8.13D-01  6.68D-01  5.42D-01
                    CP:  6.63D-01
 E= -1050.35898119321     Delta-E=       -0.000300123360 Rises=F Damp=F
 DIIS: error= 2.27D-04 at cycle   7 NSaved=   7.
 NSaved= 7 IEnMin= 7 EnMin= -1050.35898119321     IErMin= 7 ErrMin= 2.27D-04
 ErrMax= 2.27D-04  0.00D+00 EMaxC= 1.00D-01 BMatC= 2.78D-05 BMatP= 3.97D-04
 IDIUse=3 WtCom= 9.98D-01 WtEn= 2.27D-03
 Coeff-Com:  0.212D-02-0.263D-02 0.208D-01 0.556D-01 0.130D+00 0.267D+00
 Coeff-Com:  0.526D+00
 Coeff-En:   0.000D+00 0.000D+00 0.000D+00 0.000D+00 0.000D+00 0.515D-01
 Coeff-En:   0.949D+00
 Coeff:      0.211D-02-0.262D-02 0.207D-01 0.554D-01 0.130D+00 0.267D+00
 Coeff:      0.527D+00
 Gap=     0.101 Goal=   None    Shift=    0.000
 RMSDP=2.06D-05 MaxDP=7.37D-04 DE=-3.00D-04 OVMax= 3.32D-03

 Cycle   8  Pass 0  IDiag  1:
 RMSU=  1.41D-05    CP:  8.41D-01  2.66D+00  8.16D-01  6.61D-01  5.52D-01
                    CP:  6.90D-01  6.85D-01
 E= -1050.35900989506     Delta-E=       -0.000028701858 Rises=F Damp=F
 DIIS: error= 8.38D-05 at cycle   8 NSaved=   8.
 NSaved= 8 IEnMin= 8 EnMin= -1050.35900989506     IErMin= 8 ErrMin= 8.38D-05
 ErrMax= 8.38D-05  0.00D+00 EMaxC= 1.00D-01 BMatC= 5.37D-06 BMatP= 2.78D-05
 IDIUse=1 WtCom= 1.00D+00 WtEn= 0.00D+00
 Coeff-Com:  0.196D-02-0.380D-02 0.447D-02 0.151D-01 0.539D-01 0.135D+00
 Coeff-Com:  0.366D+00 0.427D+00
 Coeff:      0.196D-02-0.380D-02 0.447D-02 0.151D-01 0.539D-01 0.135D+00
 Coeff:      0.366D+00 0.427D+00
 Gap=     0.101 Goal=   None    Shift=    0.000
 RMSDP=7.35D-06 MaxDP=3.13D-04 DE=-2.87D-05 OVMax= 1.07D-03

 Initial convergence to 1.0D-05 achieved.  Increase integral accuracy.
 Cycle   9  Pass 1  IDiag  1:
 E= -1050.35895571812     Delta-E=        0.000054176942 Rises=F Damp=F
 DIIS: error= 2.71D-04 at cycle   1 NSaved=   1.
 NSaved= 1 IEnMin= 1 EnMin= -1050.35895571812     IErMin= 1 ErrMin= 2.71D-04
 ErrMax= 2.71D-04  0.00D+00 EMaxC= 1.00D-01 BMatC= 1.39D-05 BMatP= 1.39D-05
 IDIUse=3 WtCom= 9.97D-01 WtEn= 2.71D-03
 Coeff-Com:  0.100D+01
 Coeff-En:   0.100D+01
 Coeff:      0.100D+01
 Gap=     0.101 Goal=   None    Shift=    0.000
 RMSDP=7.35D-06 MaxDP=3.13D-04 DE= 5.42D-05 OVMax= 6.40D-04

 Cycle  10  Pass 1  IDiag  1:
 RMSU=  4.28D-04    CP:  9.99D-01
 E= -1050.35896531874     Delta-E=       -0.000009600622 Rises=F Damp=F
 DIIS: error= 5.01D-05 at cycle   2 NSaved=   2.
 NSaved= 2 IEnMin= 2 EnMin= -1050.35896531874     IErMin= 2 ErrMin= 5.01D-05
 ErrMax= 5.01D-05  0.00D+00 EMaxC= 1.00D-01 BMatC= 1.37D-06 BMatP= 1.39D-05
 IDIUse=1 WtCom= 1.00D+00 WtEn= 0.00D+00
 Coeff-Com:  0.114D+00 0.886D+00
 Coeff:      0.114D+00 0.886D+00
 Gap=     0.101 Goal=   None    Shift=    0.000
 RMSDP=1.06D-05 MaxDP=3.95D-04 DE=-9.60D-06 OVMax= 1.58D-03

 Cycle  11  Pass 1  IDiag  1:
 RMSU=  1.01D-05    CP:  9.99D-01  1.01D+00
 E= -1050.35895987702     Delta-E=        0.000005441719 Rises=F Damp=F
 DIIS: error= 1.13D-04 at cycle   3 NSaved=   3.
 NSaved= 3 IEnMin= 2 EnMin= -1050.35896531874     IErMin= 2 ErrMin= 5.01D-05
 ErrMax= 1.13D-04  0.00D+00 EMaxC= 1.00D-01 BMatC= 5.76D-06 BMatP= 1.37D-06
 IDIUse=3 WtCom= 4.85D-01 WtEn= 5.15D-01
 Coeff-Com: -0.319D-02 0.675D+00 0.328D+00
 Coeff-En:   0.000D+00 0.747D+00 0.253D+00
 Coeff:     -0.155D-02 0.712D+00 0.290D+00
 Gap=     0.101 Goal=   None    Shift=    0.000
 RMSDP=6.08D-06 MaxDP=2.44D-04 DE= 5.44D-06 OVMax= 1.03D-03

 Cycle  12  Pass 1  IDiag  1:
 RMSU=  9.37D-07    CP:  9.99D-01  1.01D+00  4.08D-01
 E= -1050.35896682929     Delta-E=       -0.000006952268 Rises=F Damp=F
 DIIS: error= 1.23D-05 at cycle   4 NSaved=   4.
 NSaved= 4 IEnMin= 4 EnMin= -1050.35896682929     IErMin= 4 ErrMin= 1.23D-05
 ErrMax= 1.23D-05  0.00D+00 EMaxC= 1.00D-01 BMatC= 1.15D-07 BMatP= 1.37D-06
 IDIUse=1 WtCom= 1.00D+00 WtEn= 0.00D+00
 Coeff-Com: -0.313D-02 0.436D+00 0.161D+00 0.406D+00
 Coeff:     -0.313D-02 0.436D+00 0.161D+00 0.406D+00
 Gap=     0.101 Goal=   None    Shift=    0.000
 RMSDP=9.40D-07 MaxDP=4.72D-05 DE=-6.95D-06 OVMax= 1.09D-04

 Cycle  13  Pass 1  IDiag  1:
 RMSU=  3.82D-07    CP:  9.99D-01  1.01D+00  3.28D-01  7.11D-01
 E= -1050.35896695440     Delta-E=       -0.000000125106 Rises=F Damp=F
 DIIS: error= 4.09D-06 at cycle   5 NSaved=   5.
 NSaved= 5 IEnMin= 5 EnMin= -1050.35896695440     IErMin= 5 ErrMin= 4.09D-06
 ErrMax= 4.09D-06  0.00D+00 EMaxC= 1.00D-01 BMatC= 2.25D-09 BMatP= 1.15D-07
 IDIUse=1 WtCom= 1.00D+00 WtEn= 0.00D+00
 Coeff-Com: -0.205D-02 0.274D+00 0.974D-01 0.287D+00 0.344D+00
 Coeff:     -0.205D-02 0.274D+00 0.974D-01 0.287D+00 0.344D+00
 Gap=     0.101 Goal=   None    Shift=    0.000
 RMSDP=1.25D-07 MaxDP=1.28D-05 DE=-1.25D-07 OVMax= 2.60D-05

 Cycle  14  Pass 1  IDiag  1:
 RMSU=  1.14D-07    CP:  9.99D-01  1.01D+00  3.30D-01  7.25D-01  8.79D-01
 E= -1050.35896695613     Delta-E=       -0.000000001733 Rises=F Damp=F
 DIIS: error= 9.86D-07 at cycle   6 NSaved=   6.
 NSaved= 6 IEnMin= 6 EnMin= -1050.35896695613     IErMin= 6 ErrMin= 9.86D-07
 ErrMax= 9.86D-07  0.00D+00 EMaxC= 1.00D-01 BMatC= 1.71D-10 BMatP= 2.25D-09
 IDIUse=1 WtCom= 1.00D+00 WtEn= 0.00D+00
 Coeff-Com: -0.922D-03 0.120D+00 0.415D-01 0.134D+00 0.230D+00 0.476D+00
 Coeff:     -0.922D-03 0.120D+00 0.415D-01 0.134D+00 0.230D+00 0.476D+00
 Gap=     0.101 Goal=   None    Shift=    0.000
 RMSDP=3.97D-08 MaxDP=2.93D-06 DE=-1.73D-09 OVMax= 5.84D-06

 Cycle  15  Pass 1  IDiag  1:
 RMSU=  3.14D-08    CP:  9.99D-01  1.01D+00  3.29D-01  7.35D-01  8.91D-01
                    CP:  8.13D-01
 E= -1050.35896695623     Delta-E=       -0.000000000102 Rises=F Damp=F
 DIIS: error= 2.31D-07 at cycle   7 NSaved=   7.
 NSaved= 7 IEnMin= 7 EnMin= -1050.35896695623     IErMin= 7 ErrMin= 2.31D-07
 ErrMax= 2.31D-07  0.00D+00 EMaxC= 1.00D-01 BMatC= 1.73D-11 BMatP= 1.71D-10
 IDIUse=1 WtCom= 1.00D+00 WtEn= 0.00D+00
 Coeff-Com: -0.155D-03 0.191D-01 0.599D-02 0.260D-01 0.654D-01 0.270D+00
 Coeff-Com:  0.614D+00
 Coeff:     -0.155D-03 0.191D-01 0.599D-02 0.260D-01 0.654D-01 0.270D+00
 Coeff:      0.614D+00
 Gap=     0.101 Goal=   None    Shift=    0.000
 RMSDP=1.65D-08 MaxDP=7.12D-07 DE=-1.02D-10 OVMax= 1.79D-06

 Cycle  16  Pass 1  IDiag  1:
 RMSU=  1.17D-08    CP:  9.99D-01  1.01D+00  3.29D-01  7.36D-01  9.00D-01
                    CP:  8.41D-01  6.92D-01
 E= -1050.35896695631     Delta-E=       -0.000000000071 Rises=F Damp=F
 DIIS: error= 8.45D-08 at cycle   8 NSaved=   8.
 NSaved= 8 IEnMin= 8 EnMin= -1050.35896695631     IErMin= 8 ErrMin= 8.45D-08
 ErrMax= 8.45D-08  0.00D+00 EMaxC= 1.00D-01 BMatC= 3.76D-12 BMatP= 1.73D-11
 IDIUse=1 WtCom= 1.00D+00 WtEn= 0.00D+00
 Coeff-Com:  0.191D-04-0.316D-02-0.147D-02-0.927D-03 0.889D-02 0.978D-01
 Coeff-Com:  0.385D+00 0.513D+00
 Coeff:      0.191D-04-0.316D-02-0.147D-02-0.927D-03 0.889D-02 0.978D-01
 Coeff:      0.385D+00 0.513D+00
 Gap=     0.101 Goal=   None    Shift=    0.000
 RMSDP=7.13D-09 MaxDP=2.72D-07 DE=-7.14D-11 OVMax= 1.06D-06

 SCF Done:  E(RB3LYP) =  -1050.35896696     A.U. after   16 cycles
            NFock= 16  Conv=0.71D-08     -V/T= 2.0063
 KE= 1.043731525659D+03 PE=-6.026765634119D+03 EE= 2.141610093297D+03
 Leave Link  502 at Fri Aug 15 18:37:28 2025, MaxMem=  1342177280 cpu:            1029.9 elap:              64.6
 (Enter /opt/bwhpc/common/chem/gaussian/g16.C.01/x86_64-Intel-avx2-source/g16/l801.exe)
 DoSCS=F DFT=T ScalE2(SS,OS)=  1.000000  1.000000
 Range of M.O.s used for correlation:     1   401
 NBasis=   401 NAE=    82 NBE=    82 NFC=     0 NFV=     0
 NROrb=    401 NOA=    82 NOB=    82 NVA=   319 NVB=   319

 **** Warning!!: The largest alpha MO coefficient is  0.19186157D+02

 Leave Link  801 at Fri Aug 15 18:37:28 2025, MaxMem=  1342177280 cpu:               0.3 elap:               0.0
 (Enter /opt/bwhpc/common/chem/gaussian/g16.C.01/x86_64-Intel-avx2-source/g16/l1002.exe)
 Minotr:  Closed shell wavefunction.
          Direct CPHF calculation.
          Differentiating once with respect to electric field.
                with respect to dipole field.
          Electric field/nuclear overlap derivatives assumed to be zero.
          Requested convergence is 1.0D-08 RMS, and 1.0D-07 maximum.
          Secondary convergence is 1.0D-12 RMS, and 1.0D-12 maximum.
          NewPWx=F KeepS1=T KeepF1=T KeepIn=T MapXYZ=F SortEE=F KeepMc=T.
        11230 words used for storage of precomputed grid.
 Two-electron integral symmetry used by symmetrizing perturbed Fock matrices.
          MDV=    1342177280 using IRadAn=       1.
          Solving linear equations simultaneously, MaxMat=     384.
          There are     3 degrees of freedom in the 1st order CPHF.  IDoFFX=0 NUNeed=     3.
      3 vectors produced by pass  0 Test12= 8.72D-13 3.33D-08 XBig12= 1.84D+03 3.68D+01.
 AX will form     3 AO Fock derivatives at one time.
 FoFJK:  IHMeth= 1 ICntrl=       0 DoSepK=F KAlg= 0 I1Cent=           0 FoldK=F
 IRaf= 730000000 NMat=       3 IRICut=       1 DoRegI=T DoRafI=F ISym2E=-1 IDoP0=0 IntGTp=1.
 FoFCou: FMM=F IPFlag=           0 FMFlag=      100000 FMFlg1=           0
         NFxFlg=           0 DoJE=F BraDBF=F KetDBF=F FulRan=T
         wScrn=  0.000000 ICntrl=         0 IOpCl=  0 I1Cent=           0 NGrid=           0
         NMat0=    3 NMatS0=      3 NMatT0=    0 NMatD0=    3 NMtDS0=    0 NMtDT0=    0
 Petite list used in FoFCou.
      3 vectors produced by pass  1 Test12= 8.72D-13 3.33D-08 XBig12= 4.67D+02 6.76D+00.
      3 vectors produced by pass  2 Test12= 8.72D-13 3.33D-08 XBig12= 1.49D+02 4.43D+00.
      3 vectors produced by pass  3 Test12= 8.72D-13 3.33D-08 XBig12= 9.39D+01 2.77D+00.
      3 vectors produced by pass  4 Test12= 8.72D-13 3.33D-08 XBig12= 3.59D+01 1.48D+00.
      3 vectors produced by pass  5 Test12= 8.72D-13 3.33D-08 XBig12= 9.35D+00 6.27D-01.
      3 vectors produced by pass  6 Test12= 8.72D-13 3.33D-08 XBig12= 3.40D+00 4.19D-01.
      3 vectors produced by pass  7 Test12= 8.72D-13 3.33D-08 XBig12= 8.15D-01 2.30D-01.
      3 vectors produced by pass  8 Test12= 8.72D-13 3.33D-08 XBig12= 1.40D-01 9.07D-02.
      3 vectors produced by pass  9 Test12= 8.72D-13 3.33D-08 XBig12= 4.40D-02 3.36D-02.
      3 vectors produced by pass 10 Test12= 8.72D-13 3.33D-08 XBig12= 1.13D-02 1.78D-02.
      3 vectors produced by pass 11 Test12= 8.72D-13 3.33D-08 XBig12= 3.10D-03 1.15D-02.
      3 vectors produced by pass 12 Test12= 8.72D-13 3.33D-08 XBig12= 8.20D-04 3.54D-03.
      3 vectors produced by pass 13 Test12= 8.72D-13 3.33D-08 XBig12= 1.33D-04 2.34D-03.
      3 vectors produced by pass 14 Test12= 8.72D-13 3.33D-08 XBig12= 3.93D-05 1.55D-03.
      3 vectors produced by pass 15 Test12= 8.72D-13 3.33D-08 XBig12= 6.96D-06 5.86D-04.
      3 vectors produced by pass 16 Test12= 8.72D-13 3.33D-08 XBig12= 7.11D-07 2.07D-04.
      3 vectors produced by pass 17 Test12= 8.72D-13 3.33D-08 XBig12= 2.26D-07 8.12D-05.
      3 vectors produced by pass 18 Test12= 8.72D-13 3.33D-08 XBig12= 2.22D-08 1.98D-05.
      3 vectors produced by pass 19 Test12= 8.72D-13 3.33D-08 XBig12= 1.12D-09 5.19D-06.
      3 vectors produced by pass 20 Test12= 8.72D-13 3.33D-08 XBig12= 3.49D-11 8.40D-07.
      1 vectors produced by pass 21 Test12= 8.72D-13 3.33D-08 XBig12= 1.19D-12 1.23D-07.
 InvSVY:  IOpt=1 It=  1 EMax= 2.13D-14
 Solved reduced A of dimension    64 with     3 vectors.
 FullF1:  Do perturbations      1 to       3.
 SCF Polarizability for W=    0.000000:
                1             2             3 
      1  0.610620D+03
      2  0.286778D+02  0.261806D+03
      3 -0.403066D+01 -0.259534D+01  0.794353D+02
 Isotropic polarizability for W=    0.000000      317.29 Bohr**3.
 SCF Static Hyperpolarizability:
 K=  1 block:
                1 
      1  0.119581D+05
 K=  2 block:
                1             2 
      1 -0.118671D+04
      2  0.446163D+02  0.775277D+02
 K=  3 block:
                1             2             3 
      1  0.703643D+02
      2  0.142178D+02 -0.873988D+00
      3 -0.325234D+02 -0.151071D+01  0.342082D+01
 End of Minotr F.D. properties file   721 does not exist.
 End of Minotr F.D. properties file   722 does not exist.
 End of Minotr F.D. properties file   788 does not exist.
 Leave Link 1002 at Fri Aug 15 18:40:01 2025, MaxMem=  1342177280 cpu:            2440.5 elap:             153.3
 (Enter /opt/bwhpc/common/chem/gaussian/g16.C.01/x86_64-Intel-avx2-source/g16/l601.exe)
 Copying SCF densities to generalized density rwf, IOpCl= 0 IROHF=0.

 **********************************************************************

            Population analysis using the SCF Density.

 **********************************************************************

 Orbital symmetries:
       Occupied  (A) (A) (A) (A) (A) (A) (A) (A) (A) (A) (A) (A)
                 (A) (A) (A) (A) (A) (A) (A) (A) (A) (A) (A) (A)
                 (A) (A) (A) (A) (A) (A) (A) (A) (A) (A) (A) (A)
                 (A) (A) (A) (A) (A) (A) (A) (A) (A) (A) (A) (A)
                 (A) (A) (A) (A) (A) (A) (A) (A) (A) (A) (A) (A)
                 (A) (A) (A) (A) (A) (A) (A) (A) (A) (A) (A) (A)
                 (A) (A) (A) (A) (A) (A) (A) (A) (A) (A)
       Virtual   (A) (A) (A) (A) (A) (A) (A) (A) (A) (A) (A) (A)
                 (A) (A) (A) (A) (A) (A) (A) (A) (A) (A) (A) (A)
                 (A) (A) (A) (A) (A) (A) (A) (A) (A) (A) (A) (A)
                 (A) (A) (A) (A) (A) (A) (A) (A) (A) (A) (A) (A)
                 (A) (A) (A) (A) (A) (A) (A) (A) (A) (A) (A) (A)
                 (A) (A) (A) (A) (A) (A) (A) (A) (A) (A) (A) (A)
                 (A) (A) (A) (A) (A) (A) (A) (A) (A) (A) (A) (A)
                 (A) (A) (A) (A) (A) (A) (A) (A) (A) (A) (A) (A)
                 (A) (A) (A) (A) (A) (A) (A) (A) (A) (A) (A) (A)
                 (A) (A) (A) (A) (A) (A) (A) (A) (A) (A) (A) (A)
                 (A) (A) (A) (A) (A) (A) (A) (A) (A) (A) (A) (A)
                 (A) (A) (A) (A) (A) (A) (A) (A) (A) (A) (A) (A)
                 (A) (A) (A) (A) (A) (A) (A) (A) (A) (A) (A) (A)
                 (A) (A) (A) (A) (A) (A) (A) (A) (A) (A) (A) (A)
                 (A) (A) (A) (A) (A) (A) (A) (A) (A) (A) (A) (A)
                 (A) (A) (A) (A) (A) (A) (A) (A) (A) (A) (A) (A)
                 (A) (A) (A) (A) (A) (A) (A) (A) (A) (A) (A) (A)
                 (A) (A) (A) (A) (A) (A) (A) (A) (A) (A) (A) (A)
                 (A) (A) (A) (A) (A) (A) (A) (A) (A) (A) (A) (A)
                 (A) (A) (A) (A) (A) (A) (A) (A) (A) (A) (A) (A)
                 (A) (A) (A) (A) (A) (A) (A) (A) (A) (A) (A) (A)
                 (A) (A) (A) (A) (A) (A) (A) (A) (A) (A) (A) (A)
                 (A) (A) (A) (A) (A) (A) (A) (A) (A) (A) (A) (A)
                 (A) (A) (A) (A) (A) (A) (A) (A) (A) (A) (A) (A)
                 (A) (A) (A) (A) (A) (A) (A) (A) (A) (A) (A) (A)
                 (A) (A) (A) (A) (A) (A) (A) (A) (A) (A) (A) (A)
                 (A) (A) (A) (A) (A) (A) (A)
 The electronic state is 1-A.
 Alpha  occ. eigenvalues --  -19.19425 -19.15187 -19.15146 -14.54563 -10.26539
 Alpha  occ. eigenvalues --  -10.23612 -10.22507 -10.22148 -10.22007 -10.21962
 Alpha  occ. eigenvalues --  -10.21595 -10.21461 -10.21305 -10.21237 -10.20954
 Alpha  occ. eigenvalues --  -10.20881 -10.20705 -10.20669 -10.20618 -10.20556
 Alpha  occ. eigenvalues --  -10.20504 -10.20373 -10.20370 -10.19499  -1.21456
 Alpha  occ. eigenvalues --   -1.08431  -1.03948  -0.90756  -0.87370  -0.84809
 Alpha  occ. eigenvalues --   -0.84030  -0.81514  -0.79560  -0.77317  -0.76160
 Alpha  occ. eigenvalues --   -0.74423  -0.73037  -0.69187  -0.65090  -0.64577
 Alpha  occ. eigenvalues --   -0.63374  -0.62181  -0.59263  -0.57892  -0.56833
 Alpha  occ. eigenvalues --   -0.54922  -0.53972  -0.53285  -0.52135  -0.51942
 Alpha  occ. eigenvalues --   -0.51430  -0.50732  -0.48654  -0.47964  -0.46486
 Alpha  occ. eigenvalues --   -0.45638  -0.45111  -0.43785  -0.43283  -0.42635
 Alpha  occ. eigenvalues --   -0.41922  -0.41325  -0.41120  -0.40598  -0.40244
 Alpha  occ. eigenvalues --   -0.38788  -0.38420  -0.37914  -0.36368  -0.35873
 Alpha  occ. eigenvalues --   -0.34426  -0.33744  -0.33156  -0.30391  -0.29359
 Alpha  occ. eigenvalues --   -0.29309  -0.28904  -0.27494  -0.26985  -0.25013
 Alpha  occ. eigenvalues --   -0.24147  -0.20096
 Alpha virt. eigenvalues --   -0.10004  -0.06178  -0.04525  -0.02526  -0.01237
 Alpha virt. eigenvalues --    0.01828   0.02305   0.02429   0.05644   0.05772
 Alpha virt. eigenvalues --    0.06590   0.07189   0.07504   0.08816   0.09305
 Alpha virt. eigenvalues --    0.09723   0.11534   0.11758   0.14154   0.14743
 Alpha virt. eigenvalues --    0.16324   0.17289   0.18733   0.19453   0.20839
 Alpha virt. eigenvalues --    0.22009   0.22385   0.22919   0.23750   0.24232
 Alpha virt. eigenvalues --    0.24917   0.27629   0.28141   0.28837   0.29108
 Alpha virt. eigenvalues --    0.29224   0.30035   0.31450   0.33366   0.33640
 Alpha virt. eigenvalues --    0.37655   0.38281   0.39503   0.40588   0.40931
 Alpha virt. eigenvalues --    0.42577   0.42888   0.43155   0.43293   0.44452
 Alpha virt. eigenvalues --    0.44675   0.45190   0.45613   0.45874   0.46196
 Alpha virt. eigenvalues --    0.47220   0.47467   0.48401   0.48492   0.48579
 Alpha virt. eigenvalues --    0.49607   0.50129   0.50447   0.50720   0.51158
 Alpha virt. eigenvalues --    0.51443   0.51911   0.52022   0.52518   0.53183
 Alpha virt. eigenvalues --    0.53439   0.53651   0.53999   0.54361   0.55574
 Alpha virt. eigenvalues --    0.56235   0.56549   0.57231   0.57703   0.58317
 Alpha virt. eigenvalues --    0.58740   0.59868   0.60977   0.62119   0.63498
 Alpha virt. eigenvalues --    0.63727   0.65139   0.65331   0.66194   0.66582
 Alpha virt. eigenvalues --    0.67494   0.67948   0.68998   0.69573   0.70221
 Alpha virt. eigenvalues --    0.70839   0.70949   0.71712   0.73303   0.73733
 Alpha virt. eigenvalues --    0.74315   0.77057   0.77699   0.79231   0.82102
 Alpha virt. eigenvalues --    0.82277   0.82544   0.84159   0.84435   0.84970
 Alpha virt. eigenvalues --    0.85775   0.86208   0.86715   0.87540   0.88026
 Alpha virt. eigenvalues --    0.88681   0.89994   0.90422   0.91096   0.91839
 Alpha virt. eigenvalues --    0.92440   0.92581   0.92919   0.93443   0.93975
 Alpha virt. eigenvalues --    0.94314   0.95492   0.95882   0.96708   0.97884
 Alpha virt. eigenvalues --    0.98139   0.98825   0.99073   1.00000   1.00942
 Alpha virt. eigenvalues --    1.01096   1.01731   1.02080   1.02433   1.03930
 Alpha virt. eigenvalues --    1.04570   1.05866   1.06302   1.06808   1.07048
 Alpha virt. eigenvalues --    1.07441   1.08582   1.09572   1.10387   1.11846
 Alpha virt. eigenvalues --    1.13595   1.14455   1.14628   1.15332   1.16277
 Alpha virt. eigenvalues --    1.19089   1.19774   1.23792   1.27144   1.32094
 Alpha virt. eigenvalues --    1.32433   1.33011   1.33186   1.33638   1.34439
 Alpha virt. eigenvalues --    1.35027   1.35653   1.36386   1.36872   1.37458
 Alpha virt. eigenvalues --    1.38325   1.38747   1.40853   1.41768   1.42406
 Alpha virt. eigenvalues --    1.42878   1.43335   1.44883   1.45131   1.46665
 Alpha virt. eigenvalues --    1.47853   1.48420   1.48997   1.50249   1.50626
 Alpha virt. eigenvalues --    1.51469   1.51634   1.52382   1.53320   1.55663
 Alpha virt. eigenvalues --    1.55926   1.56140   1.57248   1.57576   1.58994
 Alpha virt. eigenvalues --    1.59195   1.60183   1.60518   1.60859   1.61370
 Alpha virt. eigenvalues --    1.62231   1.62972   1.63497   1.64408   1.65508
 Alpha virt. eigenvalues --    1.65889   1.66041   1.67828   1.68459   1.68634
 Alpha virt. eigenvalues --    1.70501   1.72169   1.72680   1.73585   1.74076
 Alpha virt. eigenvalues --    1.74644   1.75658   1.76903   1.77477   1.78295
 Alpha virt. eigenvalues --    1.78725   1.79758   1.79918   1.80620   1.81947
 Alpha virt. eigenvalues --    1.82486   1.82903   1.84010   1.84457   1.84697
 Alpha virt. eigenvalues --    1.86098   1.87597   1.88723   1.90047   1.91633
 Alpha virt. eigenvalues --    1.92460   1.93354   1.94318   1.94992   1.95964
 Alpha virt. eigenvalues --    1.96878   1.98322   1.99466   2.01098   2.02390
 Alpha virt. eigenvalues --    2.02769   2.03862   2.04753   2.05649   2.06300
 Alpha virt. eigenvalues --    2.08001   2.08437   2.09766   2.10242   2.10931
 Alpha virt. eigenvalues --    2.11437   2.12405   2.12532   2.14862   2.15799
 Alpha virt. eigenvalues --    2.18213   2.19037   2.19724   2.20387   2.21706
 Alpha virt. eigenvalues --    2.23329   2.23957   2.24914   2.26924   2.27550
 Alpha virt. eigenvalues --    2.29742   2.30642   2.33567   2.36358   2.37645
 Alpha virt. eigenvalues --    2.38355   2.39404   2.44348   2.46682   2.47185
 Alpha virt. eigenvalues --    2.48930   2.50576   2.51464   2.53520   2.55537
 Alpha virt. eigenvalues --    2.59348   2.60814   2.63320   2.63694   2.66329
 Alpha virt. eigenvalues --    2.66921   2.68945   2.69884   2.72140   2.75061
 Alpha virt. eigenvalues --    2.75930   2.77785   2.80325   2.82248   2.83662
 Alpha virt. eigenvalues --    2.84957   2.85550   2.87692   2.92646   2.98881
 Alpha virt. eigenvalues --    2.99648   3.03589   3.15109   3.22849   3.23719
 Alpha virt. eigenvalues --    3.25544   3.28528   3.35557   3.41162   3.43704
 Alpha virt. eigenvalues --    3.49874   3.62040   3.65798   3.72980
          Condensed to atoms (all electrons):
               1          2          3          4          5          6
     1  C    5.304975   0.393764   0.065324  -0.112959  -0.001855   0.000135
     2  C    0.393764   5.037014   0.370403   0.068782   0.012277  -0.000814
     3  C    0.065324   0.370403   5.028841   0.394146  -0.142199   0.011884
     4  C   -0.112959   0.068782   0.394146   5.159399   0.375658   0.068904
     5  C   -0.001855   0.012277  -0.142199   0.375658   5.017190   0.397094
     6  C    0.000135  -0.000814   0.011884   0.068904   0.397094   5.080301
     7  C   -0.000250   0.000057  -0.001266  -0.111210   0.061979   0.367861
     8  C   -0.000005   0.000001  -0.000004  -0.002180   0.017463  -0.148873
     9  C    0.000001  -0.000000   0.000002  -0.000029  -0.000129   0.019516
    10  C   -0.000008   0.000002  -0.000006  -0.000166   0.000061  -0.003974
    11  C   -0.002380  -0.000015  -0.000188   0.029117  -0.004441   0.027370
    12  C    0.018373  -0.000025   0.000066  -0.004786   0.000013   0.000048
    13  C   -0.163847   0.018892  -0.003975   0.026995   0.000046  -0.000069
    14  C    0.233886   0.006703  -0.126650  -0.069927   0.024708  -0.004496
    15  C   -0.007886  -0.117380   0.021941   0.270324   0.015703  -0.120012
    16  C    0.030715  -0.003918   0.025569  -0.052775  -0.123974  -0.007138
    17  C    0.325206  -0.128268   0.015183  -0.001859  -0.000003   0.000001
    18  C    0.000000   0.000000  -0.000001  -0.000044   0.000347  -0.024402
    19  C   -0.027199  -0.025407  -0.000170  -0.000000  -0.000000  -0.000000
    20  C    0.000000  -0.000000  -0.000000   0.000002  -0.000070  -0.000199
    21  O   -0.000000   0.000000  -0.000000  -0.000000  -0.000000  -0.000003
    22  N    0.003294  -0.000315  -0.000006   0.000000  -0.000000  -0.000000
    23  O   -0.000111   0.000007  -0.000000  -0.000000  -0.000000   0.000000
    24  O    0.001469   0.000027   0.000000  -0.000000  -0.000000   0.000000
    25  H   -0.030481   0.384021  -0.052731   0.010397  -0.000341   0.000006
    26  H    0.010137  -0.048267   0.381927  -0.037414  -0.021099   0.000841
    27  H   -0.000073   0.000753  -0.022099  -0.039605   0.381242  -0.044815
    28  H    0.000001   0.000008  -0.000340   0.009445  -0.056352   0.376853
    29  H    0.000000   0.000000   0.000000  -0.000001   0.000005  -0.000287
    30  H   -0.000001   0.000000  -0.000000   0.000006  -0.000000   0.000043
    31  H   -0.000401   0.000006   0.000001   0.000023   0.000000   0.000006
    32  H   -0.053200  -0.001303   0.000015  -0.000064   0.000001  -0.000000
    33  H    0.026157   0.013585  -0.000021  -0.000136  -0.000000   0.000000
    34  H   -0.000000   0.000000  -0.000000  -0.000081   0.001968   0.009716
    35  H   -0.024278   0.006488   0.000991  -0.000070  -0.000000   0.000000
    36  H   -0.000000   0.000000   0.000000  -0.000000   0.000003   0.000011
    37  H    0.000000  -0.000000   0.000000   0.000000  -0.000000  -0.000000
               7          8          9         10         11         12
     1  C   -0.000250  -0.000005   0.000001  -0.000008  -0.002380   0.018373
     2  C    0.000057   0.000001  -0.000000   0.000002  -0.000015  -0.000025
     3  C   -0.001266  -0.000004   0.000002  -0.000006  -0.000188   0.000066
     4  C   -0.111210  -0.002180  -0.000029  -0.000166   0.029117  -0.004786
     5  C    0.061979   0.017463  -0.000129   0.000061  -0.004441   0.000013
     6  C    0.367861  -0.148873   0.019516  -0.003974   0.027370   0.000048
     7  C    5.432816   0.286801   0.039707  -0.123566  -0.074496   0.025338
     8  C    0.286801   5.177608   0.407574   0.053794  -0.107803  -0.001912
     9  C    0.039707   0.407574   5.002167   0.365265   0.063805   0.012320
    10  C   -0.123566   0.053794   0.365265   5.031085   0.408753  -0.143564
    11  C   -0.074496  -0.107803   0.063805   0.408753   5.159503   0.363868
    12  C    0.025338  -0.001912   0.012320  -0.143564   0.363868   5.021276
    13  C   -0.004386   0.000132  -0.000763   0.011978   0.067060   0.395649
    14  C    0.029796  -0.000234   0.000075  -0.001483  -0.112391   0.068329
    15  C   -0.056521   0.029070  -0.004655   0.026757  -0.051357  -0.127701
    16  C    0.212134  -0.010504  -0.119878   0.019873   0.272748   0.019212
    17  C    0.000002   0.000000   0.000000  -0.000001  -0.000107   0.000761
    18  C   -0.086926   0.374335  -0.114595   0.013627  -0.001395  -0.000003
    19  C    0.000000   0.000000  -0.000000  -0.000000   0.000001  -0.000060
    20  C    0.013102  -0.012391  -0.020006   0.000306   0.000004   0.000000
    21  O   -0.000064   0.000843  -0.000025  -0.000003  -0.000000  -0.000000
    22  N   -0.000000   0.000000  -0.000000  -0.000000   0.000000  -0.000000
    23  O   -0.000000   0.000000   0.000000  -0.000000  -0.000000  -0.000000
    24  O   -0.000000  -0.000000  -0.000000  -0.000000   0.000000  -0.000001
    25  H    0.000001   0.000000  -0.000000   0.000000   0.000000   0.000002
    26  H   -0.000046  -0.000001   0.000000  -0.000000   0.000005  -0.000000
    27  H    0.009653  -0.000422   0.000006   0.000000   0.000027   0.000001
    28  H   -0.014013  -0.045004  -0.000658  -0.000018  -0.000136   0.000001
    29  H    0.013281  -0.037500   0.374765  -0.045630   0.009289  -0.000375
    30  H    0.000534   0.009447  -0.049994   0.378934  -0.033973  -0.021441
    31  H   -0.000168  -0.000066   0.000665  -0.021936  -0.041297   0.379291
    32  H    0.000023   0.000001   0.000007  -0.000319   0.009901  -0.055144
    33  H    0.000000  -0.000000   0.000000  -0.000001  -0.000109   0.001606
    34  H   -0.035979   0.002005   0.009893  -0.000143  -0.000006   0.000001
    35  H   -0.000000  -0.000000   0.000000   0.000000  -0.000000   0.000002
    36  H   -0.000315  -0.017263   0.007554   0.000744  -0.000035  -0.000000
    37  H    0.000018  -0.000360  -0.000020  -0.000002  -0.000000  -0.000000
              13         14         15         16         17         18
     1  C   -0.163847   0.233886  -0.007886   0.030715   0.325206   0.000000
     2  C    0.018892   0.006703  -0.117380  -0.003918  -0.128268   0.000000
     3  C   -0.003975  -0.126650   0.021941   0.025569   0.015183  -0.000001
     4  C    0.026995  -0.069927   0.270324  -0.052775  -0.001859  -0.000044
     5  C    0.000046   0.024708   0.015703  -0.123974  -0.000003   0.000347
     6  C   -0.000069  -0.004496  -0.120012  -0.007138   0.000001  -0.024402
     7  C   -0.004386   0.029796  -0.056521   0.212134   0.000002  -0.086926
     8  C    0.000132  -0.000234   0.029070  -0.010504   0.000000   0.374335
     9  C   -0.000763   0.000075  -0.004655  -0.119878   0.000000  -0.114595
    10  C    0.011978  -0.001483   0.026757   0.019873  -0.000001   0.013627
    11  C    0.067060  -0.112391  -0.051357   0.272748  -0.000107  -0.001395
    12  C    0.395649   0.068329  -0.127701   0.019212   0.000761  -0.000003
    13  C    5.099709   0.375598  -0.008736  -0.120412  -0.020558   0.000000
    14  C    0.375598   5.493739   0.210637  -0.054308  -0.085328   0.000000
    15  C   -0.008736   0.210637   5.619131   0.166537   0.021321  -0.000102
    16  C   -0.120412  -0.054308   0.166537   5.615987  -0.000241   0.020783
    17  C   -0.020558  -0.085328   0.021321  -0.000241   5.143711  -0.000000
    18  C    0.000000   0.000000  -0.000102   0.020783  -0.000000   5.066108
    19  C    0.000127   0.015656  -0.000237  -0.000001   0.376426  -0.000000
    20  C   -0.000000   0.000000   0.000001  -0.000274   0.000000   0.543502
    21  O    0.000000  -0.000000   0.000000   0.000001  -0.000000  -0.053852
    22  N   -0.000026  -0.000038   0.000001  -0.000000  -0.016883   0.000000
    23  O   -0.000000  -0.000000   0.000000   0.000000   0.011135   0.000000
    24  O   -0.000025  -0.000046   0.000000   0.000000   0.009609   0.000000
    25  H   -0.000164   0.014213  -0.000505   0.000033  -0.039834  -0.000000
    26  H    0.000041   0.000521   0.012624  -0.000351  -0.000319  -0.000000
    27  H    0.000005  -0.000178   0.013458   0.000118  -0.000001   0.000028
    28  H    0.000000   0.000024  -0.000505   0.016410   0.000000   0.014767
    29  H    0.000008   0.000001   0.000043   0.000177  -0.000000  -0.025679
    30  H    0.000797  -0.000044  -0.000378   0.012951  -0.000000  -0.000345
    31  H   -0.041134   0.010338   0.000017   0.013220   0.000050  -0.000001
    32  H    0.381879  -0.012881   0.016018  -0.000781   0.016244   0.000000
    33  H    0.007465  -0.047762  -0.000892   0.000155   0.336949   0.000000
    34  H   -0.000000   0.000001   0.000059  -0.001325   0.000000   0.343978
    35  H    0.000009  -0.000629   0.000054   0.000000  -0.027753  -0.000000
    36  H    0.000000   0.000000   0.000001  -0.000015   0.000000  -0.046823
    37  H    0.000000  -0.000000  -0.000000  -0.000000  -0.000000   0.007868
              19         20         21         22         23         24
     1  C   -0.027199   0.000000  -0.000000   0.003294  -0.000111   0.001469
     2  C   -0.025407  -0.000000   0.000000  -0.000315   0.000007   0.000027
     3  C   -0.000170  -0.000000  -0.000000  -0.000006  -0.000000   0.000000
     4  C   -0.000000   0.000002  -0.000000   0.000000  -0.000000  -0.000000
     5  C   -0.000000  -0.000070  -0.000000  -0.000000  -0.000000  -0.000000
     6  C   -0.000000  -0.000199  -0.000003  -0.000000   0.000000   0.000000
     7  C    0.000000   0.013102  -0.000064  -0.000000  -0.000000  -0.000000
     8  C    0.000000  -0.012391   0.000843   0.000000   0.000000  -0.000000
     9  C   -0.000000  -0.020006  -0.000025  -0.000000   0.000000  -0.000000
    10  C   -0.000000   0.000306  -0.000003  -0.000000  -0.000000  -0.000000
    11  C    0.000001   0.000004  -0.000000   0.000000  -0.000000   0.000000
    12  C   -0.000060   0.000000  -0.000000  -0.000000  -0.000000  -0.000001
    13  C    0.000127  -0.000000   0.000000  -0.000026  -0.000000  -0.000025
    14  C    0.015656   0.000000  -0.000000  -0.000038  -0.000000  -0.000046
    15  C   -0.000237   0.000001   0.000000   0.000001   0.000000   0.000000
    16  C   -0.000001  -0.000274   0.000001  -0.000000   0.000000   0.000000
    17  C    0.376426   0.000000  -0.000000  -0.016883   0.011135   0.009609
    18  C   -0.000000   0.543502  -0.053852   0.000000   0.000000   0.000000
    19  C    5.179338  -0.000000   0.000000   0.267717  -0.091714  -0.123491
    20  C   -0.000000   4.658132   0.415941   0.000000   0.000000   0.000000
    21  O    0.000000   0.415941   7.481414   0.000000   0.000000   0.000000
    22  N    0.267717   0.000000   0.000000   5.717567   0.413639   0.443702
    23  O   -0.091714   0.000000   0.000000   0.413639   8.004478  -0.091780
    24  O   -0.123491   0.000000   0.000000   0.443702  -0.091780   7.969163
    25  H    0.009624  -0.000000  -0.000000   0.000023  -0.000136  -0.000005
    26  H    0.000020   0.000000  -0.000000  -0.000000   0.000000   0.000000
    27  H   -0.000000  -0.000001   0.000000   0.000000  -0.000000   0.000000
    28  H   -0.000000   0.001532  -0.000088   0.000000   0.000000   0.000000
    29  H    0.000000   0.006653  -0.000223  -0.000000   0.000000   0.000000
    30  H    0.000000   0.000010  -0.000000  -0.000000  -0.000000  -0.000000
    31  H   -0.000000  -0.000000  -0.000000  -0.000000   0.000000   0.000000
    32  H    0.002808  -0.000000   0.000000   0.000041  -0.000003  -0.000819
    33  H   -0.064768  -0.000000   0.000000  -0.016445   0.001411   0.049319
    34  H    0.000000  -0.046290   0.003020   0.000000   0.000000  -0.000000
    35  H    0.381456   0.000000   0.000000  -0.027673   0.011828   0.005272
    36  H    0.000000   0.377023  -0.039156  -0.000000   0.000000   0.000000
    37  H    0.000000  -0.032606   0.347580   0.000000   0.000000   0.000000
              25         26         27         28         29         30
     1  C   -0.030481   0.010137  -0.000073   0.000001   0.000000  -0.000001
     2  C    0.384021  -0.048267   0.000753   0.000008   0.000000   0.000000
     3  C   -0.052731   0.381927  -0.022099  -0.000340   0.000000  -0.000000
     4  C    0.010397  -0.037414  -0.039605   0.009445  -0.000001   0.000006
     5  C   -0.000341  -0.021099   0.381242  -0.056352   0.000005  -0.000000
     6  C    0.000006   0.000841  -0.044815   0.376853  -0.000287   0.000043
     7  C    0.000001  -0.000046   0.009653  -0.014013   0.013281   0.000534
     8  C    0.000000  -0.000001  -0.000422  -0.045004  -0.037500   0.009447
     9  C   -0.000000   0.000000   0.000006  -0.000658   0.374765  -0.049994
    10  C    0.000000  -0.000000   0.000000  -0.000018  -0.045630   0.378934
    11  C    0.000000   0.000005   0.000027  -0.000136   0.009289  -0.033973
    12  C    0.000002  -0.000000   0.000001   0.000001  -0.000375  -0.021441
    13  C   -0.000164   0.000041   0.000005   0.000000   0.000008   0.000797
    14  C    0.014213   0.000521  -0.000178   0.000024   0.000001  -0.000044
    15  C   -0.000505   0.012624   0.013458  -0.000505   0.000043  -0.000378
    16  C    0.000033  -0.000351   0.000118   0.016410   0.000177   0.012951
    17  C   -0.039834  -0.000319  -0.000001   0.000000  -0.000000  -0.000000
    18  C   -0.000000  -0.000000   0.000028   0.014767  -0.025679  -0.000345
    19  C    0.009624   0.000020  -0.000000  -0.000000   0.000000   0.000000
    20  C   -0.000000   0.000000  -0.000001   0.001532   0.006653   0.000010
    21  O   -0.000000  -0.000000   0.000000  -0.000088  -0.000223  -0.000000
    22  N    0.000023  -0.000000   0.000000   0.000000  -0.000000  -0.000000
    23  O   -0.000136   0.000000  -0.000000   0.000000   0.000000  -0.000000
    24  O   -0.000005   0.000000   0.000000   0.000000   0.000000  -0.000000
    25  H    0.761645  -0.016943  -0.000014  -0.000000   0.000000  -0.000000
    26  H   -0.016943   0.757476   0.004427  -0.000025  -0.000000   0.000000
    27  H   -0.000014   0.004427   0.760680  -0.017210  -0.000000   0.000000
    28  H   -0.000000  -0.000025  -0.017210   0.756320  -0.000035   0.000001
    29  H    0.000000  -0.000000  -0.000000  -0.000035   0.765440  -0.016342
    30  H   -0.000000   0.000000   0.000000   0.000001  -0.016342   0.759140
    31  H   -0.000000   0.000000   0.000000  -0.000000  -0.000018   0.004719
    32  H   -0.000033   0.000001  -0.000000   0.000000  -0.000000  -0.000025
    33  H    0.000161   0.000004   0.000000   0.000000  -0.000000   0.000000
    34  H    0.000000   0.000000   0.000094  -0.004618   0.000092   0.000007
    35  H   -0.003743   0.000086  -0.000000  -0.000000   0.000000   0.000000
    36  H    0.000000   0.000000   0.000000  -0.000079   0.001751   0.000054
    37  H    0.000000   0.000000  -0.000000   0.000003   0.000052   0.000000
              31         32         33         34         35         36
     1  C   -0.000401  -0.053200   0.026157  -0.000000  -0.024278  -0.000000
     2  C    0.000006  -0.001303   0.013585   0.000000   0.006488   0.000000
     3  C    0.000001   0.000015  -0.000021  -0.000000   0.000991   0.000000
     4  C    0.000023  -0.000064  -0.000136  -0.000081  -0.000070  -0.000000
     5  C    0.000000   0.000001  -0.000000   0.001968  -0.000000   0.000003
     6  C    0.000006  -0.000000   0.000000   0.009716   0.000000   0.000011
     7  C   -0.000168   0.000023   0.000000  -0.035979  -0.000000  -0.000315
     8  C   -0.000066   0.000001  -0.000000   0.002005  -0.000000  -0.017263
     9  C    0.000665   0.000007   0.000000   0.009893   0.000000   0.007554
    10  C   -0.021936  -0.000319  -0.000001  -0.000143   0.000000   0.000744
    11  C   -0.041297   0.009901  -0.000109  -0.000006  -0.000000  -0.000035
    12  C    0.379291  -0.055144   0.001606   0.000001   0.000002  -0.000000
    13  C   -0.041134   0.381879   0.007465  -0.000000   0.000009   0.000000
    14  C    0.010338  -0.012881  -0.047762   0.000001  -0.000629   0.000000
    15  C    0.000017   0.016018  -0.000892   0.000059   0.000054   0.000001
    16  C    0.013220  -0.000781   0.000155  -0.001325   0.000000  -0.000015
    17  C    0.000050   0.016244   0.336949   0.000000  -0.027753   0.000000
    18  C   -0.000001   0.000000   0.000000   0.343978  -0.000000  -0.046823
    19  C   -0.000000   0.002808  -0.064768   0.000000   0.381456   0.000000
    20  C   -0.000000  -0.000000  -0.000000  -0.046290   0.000000   0.377023
    21  O   -0.000000   0.000000   0.000000   0.003020   0.000000  -0.039156
    22  N   -0.000000   0.000041  -0.016445   0.000000  -0.027673  -0.000000
    23  O    0.000000  -0.000003   0.001411   0.000000   0.011828   0.000000
    24  O    0.000000  -0.000819   0.049319  -0.000000   0.005272   0.000000
    25  H   -0.000000  -0.000033   0.000161   0.000000  -0.003743   0.000000
    26  H    0.000000   0.000001   0.000004   0.000000   0.000086   0.000000
    27  H    0.000000  -0.000000   0.000000   0.000094  -0.000000   0.000000
    28  H   -0.000000   0.000000   0.000000  -0.004618  -0.000000  -0.000079
    29  H   -0.000018  -0.000000  -0.000000   0.000092   0.000000   0.001751
    30  H    0.004719  -0.000025   0.000000   0.000007   0.000000   0.000054
    31  H    0.758631  -0.018116   0.000145   0.000000   0.000000   0.000000
    32  H   -0.018116   0.760497  -0.013113   0.000000  -0.000004  -0.000000
    33  H    0.000145  -0.013113   0.696757   0.000000   0.007845   0.000000
    34  H    0.000000   0.000000   0.000000   0.713248   0.000000   0.012106
    35  H    0.000000  -0.000004   0.007845   0.000000   0.675825   0.000000
    36  H    0.000000  -0.000000   0.000000   0.012106   0.000000   0.721606
    37  H    0.000000  -0.000000  -0.000000  -0.000624   0.000000  -0.014407
              37
     1  C    0.000000
     2  C   -0.000000
     3  C    0.000000
     4  C    0.000000
     5  C   -0.000000
     6  C   -0.000000
     7  C    0.000018
     8  C   -0.000360
     9  C   -0.000020
    10  C   -0.000002
    11  C   -0.000000
    12  C   -0.000000
    13  C    0.000000
    14  C   -0.000000
    15  C   -0.000000
    16  C   -0.000000
    17  C   -0.000000
    18  C    0.007868
    19  C    0.000000
    20  C   -0.032606
    21  O    0.347580
    22  N    0.000000
    23  O    0.000000
    24  O    0.000000
    25  H    0.000000
    26  H    0.000000
    27  H   -0.000000
    28  H    0.000003
    29  H    0.000052
    30  H    0.000000
    31  H    0.000000
    32  H   -0.000000
    33  H   -0.000000
    34  H   -0.000624
    35  H    0.000000
    36  H   -0.014407
    37  H    0.535557
 Mulliken charges:
               1
     1  C    0.011498
     2  C    0.012925
     3  C    0.033366
     4  C    0.020107
     5  C    0.044706
     6  C   -0.005507
     7  C    0.016103
     8  C    0.025446
     9  C    0.007430
    10  C    0.029642
    11  C    0.018678
    12  C    0.048858
    13  C   -0.022293
    14  C    0.032172
    15  C    0.073169
    16  C    0.069277
    17  C    0.064555
    18  C   -0.031177
    19  C    0.099875
    20  C    0.095626
    21  O   -0.155386
    22  N    0.215403
    23  O   -0.258753
    24  O   -0.262394
    25  H   -0.035194
    26  H   -0.043646
    27  H   -0.046073
    28  H   -0.036284
    29  H   -0.045467
    30  H   -0.044100
    31  H   -0.043974
    32  H   -0.031631
    33  H    0.001689
    34  H   -0.007121
    35  H   -0.005706
    36  H   -0.002761
    37  H    0.156941
 Sum of Mulliken charges =  -0.00000
 Mulliken charges with hydrogens summed into heavy atoms:
               1
     1  C    0.011498
     2  C   -0.022269
     3  C   -0.010280
     4  C    0.020107
     5  C   -0.001367
     6  C   -0.041790
     7  C    0.016103
     8  C    0.025446
     9  C   -0.038037
    10  C   -0.014458
    11  C    0.018678
    12  C    0.004884
    13  C   -0.053924
    14  C    0.032172
    15  C    0.073169
    16  C    0.069277
    17  C    0.066244
    18  C   -0.038297
    19  C    0.094169
    20  C    0.092865
    21  O    0.001555
    22  N    0.215403
    23  O   -0.258753
    24  O   -0.262394
 Electronic spatial extent (au):  <R**2>=          11147.0612
 Charge=             -0.0000 electrons
 Dipole moment (field-independent basis, Debye):
    X=             -9.2918    Y=              0.4445    Z=              0.8542  Tot=              9.3416
 Quadrupole moment (field-independent basis, Debye-Ang):
   XX=           -147.6497   YY=           -123.4718   ZZ=           -140.6883
   XY=             18.8484   XZ=             -8.3438   YZ=             -0.9906
 Traceless Quadrupole moment (field-independent basis, Debye-Ang):
   XX=            -10.3798   YY=             13.7982   ZZ=             -3.4184
   XY=             18.8484   XZ=             -8.3438   YZ=             -0.9906
 Octapole moment (field-independent basis, Debye-Ang**2):
  XXX=           -677.0313  YYY=              5.4060  ZZZ=              3.8801  XYY=            -12.4427
  XXY=            -18.0464  XXZ=             61.4618  XZZ=             16.1491  YZZ=             -3.2616
  YYZ=             -0.1338  XYZ=              7.6632
 Hexadecapole moment (field-independent basis, Debye-Ang**3):
 XXXX=         -12451.3236 YYYY=          -1800.8663 ZZZZ=           -158.5763 XXXY=            800.3329
 XXXZ=           -578.5178 YYYX=             23.3082 YYYZ=              0.4505 ZZZX=            -12.1006
 ZZZY=             -1.5524 XXYY=          -2369.3034 XXZZ=          -2019.6835 YYZZ=           -384.7982
 XXYZ=            -42.1306 YYXZ=             -0.2039 ZZXY=            -26.3859
 N-N= 1.791065048207D+03 E-N=-6.026765665868D+03  KE= 1.043731525659D+03
  Exact polarizability:     610.620      28.678     261.806      -4.031      -2.595      79.435
 Approx polarizability:    1043.207      83.471     519.158      -3.539      -4.599     135.827
 No NMR shielding tensors so no spin-rotation constants.
 Leave Link  601 at Fri Aug 15 18:40:02 2025, MaxMem=  1342177280 cpu:               5.1 elap:               0.4
 (Enter /opt/bwhpc/common/chem/gaussian/g16.C.01/x86_64-Intel-avx2-source/g16/l9999.exe)

 ----------------------------------------------------------------------

 Electric dipole moment (input orientation):
 (Debye = 10**-18 statcoulomb cm , SI units = C m)
                  (au)            (Debye)         (10**-30 SI)
   Tot        0.367525D+01      0.934155D+01      0.311601D+02
   x          0.199147D+01      0.506181D+01      0.168844D+02
   y         -0.308892D+01     -0.785126D+01     -0.261890D+02
   z         -0.771071D-02     -0.195987D-01     -0.653742D-01

 Dipole polarizability, Alpha (input orientation).
 (esu units = cm**3 , SI units = C**2 m**2 J**-1)
 Alpha(0;0):
               (au)            (10**-24 esu)      (10**-40 SI)
   iso        0.317287D+03      0.470171D+02      0.523136D+02
   aniso      0.470192D+03      0.696752D+02      0.775241D+02
   xx         0.323873D+03      0.479930D+02      0.533994D+02
   yx        -0.135604D+03     -0.200945D+02     -0.223581D+02
   yy         0.544977D+03      0.807573D+02      0.898546D+02
   zx         0.207209D+02      0.307052D+01      0.341641D+01
   zy        -0.386009D+02     -0.572007D+01     -0.636443D+01
   zz         0.830119D+02      0.123011D+02      0.136868D+02

 First dipole hyperpolarizability, Beta (input orientation).
 ||, _|_  parallel and perpendicular components, (z) with respect to z axis,
 vector components x,y,z.  Values do not include the 1/n! factor of 1/2.
 (esu units = statvolt**-1 cm**4 , SI units = C**3 m**3 J**-2)
 Beta(0;0,0):
               (au)            (10**-30 esu)      (10**-50 SI)
   || (z)    -0.683408D+03     -0.590411D+01     -0.219125D+01
   _|_(z)    -0.227803D+03     -0.196804D+01     -0.730417D+00
   x         -0.208252D+05     -0.179913D+03     -0.667730D+02
   y          0.292463D+05      0.252665D+03      0.937742D+02
   z         -0.341704D+04     -0.295205D+02     -0.109563D+02
   ||         0.721307D+04      0.623153D+02      0.231277D+02
   xxx       -0.226252D+04     -0.195464D+02     -0.725446D+01
   xxy        0.334574D+04      0.289046D+02      0.107277D+02
   yxy       -0.463413D+04     -0.400353D+02     -0.148587D+02
   yyy        0.634221D+04      0.547918D+02      0.203354D+02
   xxz       -0.366987D+03     -0.317048D+01     -0.117669D+01
   yxz        0.534475D+03      0.461745D+01      0.171372D+01
   yyz       -0.767179D+03     -0.662783D+01     -0.245985D+01
   zxz       -0.450696D+02     -0.389366D+00     -0.144509D+00
   zyz        0.608133D+02      0.525380D+00      0.194989D+00
   zzz       -0.484638D+01     -0.418689D-01     -0.155392D-01

 ----------------------------------------------------------------------

 Dipole orientation:
     6         -6.84518460         -5.03345636        -11.62516318
     6         -4.61001922         -3.59986509        -11.34158406
     6         -3.77592900         -2.78686852         -9.00280117
     6         -5.14708234         -3.36380895         -6.79016219
     6         -4.31209565         -2.55677836         -4.34712534
     6         -5.65207950         -3.12021595         -2.21310622
     6         -7.96779412         -4.53361716         -2.31092377
     6         -9.39439153         -5.12259593         -0.09322482
     6        -11.63128764         -6.54667675         -0.37662713
     6        -12.44957283         -7.40333817         -2.71533532
     6        -11.08843685         -6.84609013         -4.93105475
     6        -11.90796502         -7.67328303         -7.37235473
     6        -10.57949952         -7.10812930         -9.51193221
     6         -8.28542409         -5.65513295         -9.42007775
     6         -7.42414661         -4.80413308         -6.98636115
     6         -8.82539123         -5.38892889         -4.73908800
     6         -7.66055279         -5.86086346        -14.11879882
     6         -8.58380622         -4.25355881          2.40835448
     6         -6.51159442         -5.41990632        -16.34783537
     6         -9.18733566         -5.37157936          4.61480126
     8         -8.43199325         -4.40159695          6.85807482
     7         -7.59134440         -6.39480079        -18.67803854
     8         -6.41756818         -5.90199350        -20.61383294
     8         -9.55369053         -7.62043036        -18.60098133
     1         -3.50082230         -3.11789254        -13.01287054
     1         -2.03533424         -1.68502537         -8.84979527
     1         -2.55577724         -1.47656454         -4.21471721
     1         -4.92964903         -2.49213487         -0.38885741
     1        -12.79089682         -6.93545660          1.28598886
     1        -14.20014896         -8.49246603         -2.85793545
     1        -13.64572080         -8.78424459         -7.50312369
     1        -11.29190328         -7.78647568        -11.32061811
     1         -9.39147539         -6.96951713        -14.28153995
     1         -7.38824228         -2.57525260          2.54431285
     1         -4.77777972         -4.37343000        -16.70075249
     1        -10.29469723         -7.12171385          4.69738669
     1         -8.91984384         -5.51744233          8.21456176

 Electric dipole moment (dipole orientation):
 (Debye = 10**-18 statcoulomb cm , SI units = C m)
                  (au)            (Debye)         (10**-30 SI)
   Tot        0.367525D+01      0.934155D+01      0.311601D+02
   x          0.000000D+00      0.000000D+00      0.000000D+00
   y          0.000000D+00      0.000000D+00      0.000000D+00
   z          0.367525D+01      0.934155D+01      0.311601D+02

 Dipole polarizability, Alpha (dipole orientation).
 (esu units = cm**3 , SI units = C**2 m**2 J**-1)
 Alpha(0;0):
               (au)            (10**-24 esu)      (10**-40 SI)
   iso        0.317287D+03      0.470171D+02      0.523136D+02
   aniso      0.470192D+03      0.696752D+02      0.775241D+02
   xx         0.215092D+03      0.318733D+02      0.354639D+02
   yx         0.814393D+02      0.120681D+02      0.134275D+02
   yy         0.133385D+03      0.197656D+02      0.219922D+02
   zx        -0.618354D+02     -0.916306D+01     -0.101953D+02
   zy         0.133928D+02      0.198461D+01      0.220817D+01
   zz         0.603385D+03      0.894125D+02      0.994848D+02

 First dipole hyperpolarizability, Beta (dipole orientation).
 ||, _|_  parallel and perpendicular components, (z) with respect to z axis,
 vector components x,y,z.  Values do not include the 1/n! factor of 1/2.
 (esu units = statvolt**-1 cm**4 , SI units = C**3 m**3 J**-2)
 Beta(0;0,0):
               (au)            (10**-30 esu)      (10**-50 SI)
   || (z)    -0.717154D+04     -0.619565D+02     -0.229945D+02
   _|_(z)    -0.239051D+04     -0.206522D+02     -0.766485D+01
   x          0.500991D+03      0.432818D+01      0.160636D+01
   y         -0.383216D+04     -0.331069D+02     -0.122873D+02
   z         -0.358577D+05     -0.309782D+03     -0.114973D+03
   ||         0.721307D+04      0.623153D+02      0.231277D+02
   xxx        0.399774D+02      0.345374D+00      0.128182D+00
   xxy        0.314618D+02      0.271805D+00      0.100878D+00
   yxy        0.219875D+02      0.189955D+00      0.705000D-01
   yyy        0.501904D+01      0.433606D-01      0.160928D-01
   xxz        0.436831D+02      0.377388D+00      0.140064D+00
   yxz        0.403011D+02      0.348170D+00      0.129220D+00
   yyz       -0.799298D+02     -0.690532D+00     -0.256284D+00
   zxz        0.105032D+03      0.907396D+00      0.336771D+00
   zyz       -0.131387D+04     -0.113508D+02     -0.421273D+01
   zzz       -0.119163D+05     -0.102948D+03     -0.382080D+02

 ----------------------------------------------------------------------
 Unable to Open any file for archive entry.
 1\1\GINC-N0104\SP\RB3LYP\CC-pVDZ\C20H13N1O3\KA_PR7831\15-Aug-2025\0\\#
 P b3lyp/cc-pvdz polar\\p\\0,1\C,0,-7.1055123,2.7391098,-0.2629619\C,0,
 -5.8431997,3.3744014,-0.2665907\C,0,-4.6647227,2.6613301,-0.1467697\C,
 0,-4.6816976,1.2569217,-0.012659\C,0,-3.4744328,0.4967771,0.1041358\C,
 0,-3.4990491,-0.8630498,0.2354017\C,0,-4.7333038,-1.5972915,0.2709006\
 C,0,-4.7724422,-3.0192012,0.4155496\C,0,-6.0330537,-3.6535192,0.423904
 3\C,0,-7.2161516,-2.9434143,0.2801311\C,0,-7.208557,-1.5430993,0.14013
 79\C,0,-8.4144196,-0.7831108,0.0099413\C,0,-8.3952845,0.5766718,-0.117
 2524\C,0,-7.1612591,1.3144607,-0.1289297\C,0,-5.9362291,0.5716078,-0.0
 001076\C,0,-5.9564085,-0.8566858,0.1390993\C,0,-8.3248797,3.5233464,-0
 .3943885\C,0,-3.5425296,-3.8016903,0.566854\C,0,-8.4284317,4.8603656,-
 0.5252481\C,0,-3.4052617,-5.1016073,0.2402147\O,0,-2.2456692,-5.766949
 7,0.4525422\N,0,-9.7352956,5.485266,-0.6466431\O,0,-9.7329725,6.705873
 2,-0.7618839\O,0,-10.7420843,4.7876145,-0.6291508\H,0,-5.7917671,4.460
 0963,-0.3684265\H,0,-3.7046795,3.1839703,-0.1559871\H,0,-2.5196469,1.0
 290319,0.0808129\H,0,-2.5544695,-1.4028313,0.3055691\H,0,-6.0832941,-4
 .7331259,0.5816529\H,0,-8.1738681,-3.4711274,0.2978542\H,0,-9.3692284,
 -1.316365,0.0142645\H,0,-9.343796,1.1041826,-0.2126679\H,0,-9.2857468,
 3.006319,-0.3909627\H,0,-2.6517144,-3.313979,0.9703228\H,0,-7.6293603,
 5.5978213,-0.5565844\H,0,-4.2178167,-5.67632,-0.2207339\H,0,-2.3083901
 ,-6.6605695,0.0946442\\Version=ES64L-G16RevC.01\State=1-A\HF=-1050.358
 967\RMSD=7.132e-09\Dipole=1.9914713,-3.0889219,-0.0077107\Polar=323.87
 28207,-135.6041115,544.9771814,20.7208888,-38.6009262,83.0118834\Hyper
 Polar=-2262.5201654,3345.7440514,-4634.1298496,6342.210703,-366.987139
 7,534.4748366,-767.1792209,-45.0695991,60.8132968,-4.846378\Quadrupole
 =-6.1855385,9.8695221,-3.6839836,14.2948528,-3.7861878,5.2654908\PG=C0
 1 [X(C20H13N1O3)]\\@
 The archive entry for this job was punched.


 MEN HAVE BECOME THE TOOLS OF THEIR TOOLS... THOREAU   
 Job cpu time:       0 days  0 hours 58 minutes 42.6 seconds.
 Elapsed time:       0 days  0 hours  3 minutes 41.4 seconds.
 File lengths (MBytes):  RWF=     90 Int=      0 D2E=      0 Chk=     12 Scr=      1
 Normal termination of Gaussian 16 at Fri Aug 15 18:40:02 2025.
