Start Job  on nano04

                                 *****************
                                 * O   R   C   A *
                                 *****************

                                            #,                                       
                                            ###                                      
                                            ####                                     
                                            #####                                    
                                            ######                                   
                                           ########,                                 
                                     ,,################,,,,,                         
                               ,,#################################,,                 
                          ,,##########################################,,             
                       ,#########################################, ''#####,          
                    ,#############################################,,   '####,        
                  ,##################################################,,,,####,       
                ,###########''''           ''''###############################       
              ,#####''   ,,,,##########,,,,          '''####'''          '####       
            ,##' ,,,,###########################,,,                        '##       
           ' ,,###''''                  '''############,,,                           
         ,,##''                                '''############,,,,        ,,,,,,###''
      ,#''                                            '''#######################'''  
     '                                                          ''''####''''         
             ,#######,   #######,   ,#######,      ##                                
            ,#'     '#,  ##    ##  ,#'     '#,    #''#        ######   ,####,        
            ##       ##  ##   ,#'  ##            #'  '#       #        #'  '#        
            ##       ##  #######   ##           ,######,      #####,   #    #        
            '#,     ,#'  ##    ##  '#,     ,#' ,#      #,         ##   #,  ,#        
             '#######'   ##     ##  '#######'  #'      '#     #####' # '####'        



                  #######################################################
                  #                        -***-                        #
                  #          Department of theory and spectroscopy      #
                  #    Directorship and core code : Frank Neese         #
                  #        Max Planck Institute fuer Kohlenforschung    #
                  #                Kaiser Wilhelm Platz 1               #
                  #                 D-45470 Muelheim/Ruhr               #
                  #                      Germany                        #
                  #                                                     #
                  #                  All rights reserved                #
                  #                        -***-                        #
                  #######################################################


                         Program Version 5.0.4 -  RELEASE  -


 With contributions from (in alphabetic order):
   Daniel Aravena         : Magnetic Suceptibility
   Michael Atanasov       : Ab Initio Ligand Field Theory (pilot matlab implementation)
   Alexander A. Auer      : GIAO ZORA, VPT2 properties, NMR spectrum
   Ute Becker             : Parallelization
   Giovanni Bistoni       : ED, misc. LED, open-shell LED, HFLD
   Martin Brehm           : Molecular dynamics
   Dmytro Bykov           : SCF Hessian
   Vijay G. Chilkuri      : MRCI spin determinant printing, contributions to CSF-ICE
   Dipayan Datta          : RHF DLPNO-CCSD density
   Achintya Kumar Dutta   : EOM-CC, STEOM-CC
   Dmitry Ganyushin       : Spin-Orbit,Spin-Spin,Magnetic field MRCI
   Miquel Garcia          : C-PCM and meta-GGA Hessian, CC/C-PCM, Gaussian charge scheme
   Yang Guo               : DLPNO-NEVPT2, F12-NEVPT2, CIM, IAO-localization
   Andreas Hansen         : Spin unrestricted coupled pair/coupled cluster methods
   Benjamin Helmich-Paris : MC-RPA, TRAH-SCF, COSX integrals
   Lee Huntington         : MR-EOM, pCC
   Robert Izsak           : Overlap fitted RIJCOSX, COSX-SCS-MP3, EOM
   Marcus Kettner         : VPT2
   Christian Kollmar      : KDIIS, OOCD, Brueckner-CCSD(T), CCSD density, CASPT2, CASPT2-K
   Simone Kossmann        : Meta GGA functionals, TD-DFT gradient, OOMP2, MP2 Hessian
   Martin Krupicka        : Initial AUTO-CI
   Lucas Lang             : DCDCAS
   Marvin Lechner         : AUTO-CI (C++ implementation), FIC-MRCC
   Dagmar Lenk            : GEPOL surface, SMD
   Dimitrios Liakos       : Extrapolation schemes; Compound Job, initial MDCI parallelization
   Dimitrios Manganas     : Further ROCIS development; embedding schemes
   Dimitrios Pantazis     : SARC Basis sets
   Anastasios Papadopoulos: AUTO-CI, single reference methods and gradients
   Taras Petrenko         : DFT Hessian,TD-DFT gradient, ASA, ECA, R-Raman, ABS, FL, XAS/XES, NRVS
   Peter Pinski           : DLPNO-MP2, DLPNO-MP2 Gradient
   Christoph Reimann      : Effective Core Potentials
   Marius Retegan         : Local ZFS, SOC
   Christoph Riplinger    : Optimizer, TS searches, QM/MM, DLPNO-CCSD(T), (RO)-DLPNO pert. Triples
   Tobias Risthaus        : Range-separated hybrids, TD-DFT gradient, RPA, STAB
   Michael Roemelt        : Original ROCIS implementation
   Masaaki Saitow         : Open-shell DLPNO-CCSD energy and density
   Barbara Sandhoefer     : DKH picture change effects
   Avijit Sen             : IP-ROCIS
   Kantharuban Sivalingam : CASSCF convergence, NEVPT2, FIC-MRCI
   Bernardo de Souza      : ESD, SOC TD-DFT
   Georgi Stoychev        : AutoAux, RI-MP2 NMR, DLPNO-MP2 response
   Willem Van den Heuvel  : Paramagnetic NMR
   Boris Wezisla          : Elementary symmetry handling
   Frank Wennmohs         : Technical directorship


 We gratefully acknowledge several colleagues who have allowed us to
 interface, adapt or use parts of their codes:
   Stefan Grimme, W. Hujo, H. Kruse, P. Pracht,  : VdW corrections, initial TS optimization,
                  C. Bannwarth, S. Ehlert          DFT functionals, gCP, sTDA/sTD-DF
   Ed Valeev, F. Pavosevic, A. Kumar             : LibInt (2-el integral package), F12 methods
   Garnet Chan, S. Sharma, J. Yang, R. Olivares  : DMRG
   Ulf Ekstrom                                   : XCFun DFT Library
   Mihaly Kallay                                 : mrcc  (arbitrary order and MRCC methods)
   Jiri Pittner, Ondrej Demel                    : Mk-CCSD
   Frank Weinhold                                : gennbo (NPA and NBO analysis)
   Christopher J. Cramer and Donald G. Truhlar   : smd solvation model
   Lars Goerigk                                  : TD-DFT with DH, B97 family of functionals
   V. Asgeirsson, H. Jonsson                     : NEB implementation
   FAccTs GmbH                                   : IRC, NEB, NEB-TS, DLPNO-Multilevel, CI-OPT
                                                   MM, QMMM, 2- and 3-layer-ONIOM, Crystal-QMMM,
                                                   LR-CPCM, SF, NACMEs, symmetry and pop. for TD-DFT,
                                                   nearIR, NL-DFT gradient (VV10), updates on ESD,
                                                   ML-optimized integration grids
   S Lehtola, MJT Oliveira, MAL Marques          : LibXC Library
   Liviu Ungur et al                             : ANISO software


 Your calculation uses the libint2 library for the computation of 2-el integrals
 For citations please refer to: http://libint.valeyev.net

 Your ORCA version has been built with support for libXC version: 5.1.0
 For citations please refer to: https://tddft.org/programs/libxc/

 This ORCA versions uses:
   CBLAS   interface :  Fast vector & matrix operations
   LAPACKE interface :  Fast linear algebra routines
   SCALAPACK package :  Parallel linear algebra routines
   Shared memory     :  Shared parallel matrices
   BLAS/LAPACK       :  OpenBLAS 0.3.15  USE64BITINT DYNAMIC_ARCH NO_AFFINITY Zen SINGLE_THREADED
        Core in use  :  Zen
   Copyright (c) 2011-2014, The OpenBLAS Project


================================================================================

----- Orbital basis set information -----
Your calculation utilizes the basis: def2-SVP
   F. Weigend and R. Ahlrichs, Phys. Chem. Chem. Phys. 7, 3297 (2005).

----- AuxJ basis set information -----
Your calculation utilizes the auxiliary basis: def2/J
   F. Weigend, Phys. Chem. Chem. Phys. 8, 1057 (2006).

================================================================================
                                        WARNINGS
                       Please study these warnings very carefully!
================================================================================


WARNING: Geometry Optimization
  ===> : Switching off AutoStart
         For restart on a previous wavefunction, please use MOREAD

INFO   : the flag for use of the SHARK integral package has been found!

================================================================================
                                       INPUT FILE
================================================================================
NAME = pyrene_deriv_p1_prime.inp
|  1> ! B3LYP def2-SVP Opt PAL8 FREQ
|  2> *xyz 0 1
|  3>   C  -12.076799    3.710487   -0.363930
|  4>   C  -10.882321    4.334033   -0.364956
|  5>   C   -9.730517    3.663047   -0.265714
|  6>   C   -9.741835    2.327887   -0.161211
|  7>   C   -8.579721    1.669598   -0.063065
|  8>   C   -8.566062    0.336259    0.041724
|  9>   C   -9.696455   -0.399445    0.054170
| 10>   C   -9.686563   -1.758690    0.160458
| 11>   C  -10.884043   -2.377392    0.161754
| 12>   C  -12.035310   -1.705383    0.063913
| 13>   C  -12.023095   -0.370534   -0.040325
| 14>   C  -13.185557    0.287659   -0.138029
| 15>   C  -13.199175    1.620857   -0.243458
| 16>   C  -12.066906    2.352584   -0.256196
| 17>   C  -10.905974    1.653403   -0.154805
| 18>   C  -10.857203    0.300933   -0.046725
| 19>   C  -13.202002    4.458963   -0.468962
| 20>   C   -8.558685   -2.506352    0.262864
| 21>   C  -13.327072    5.795194   -0.580021
| 22>   C   -8.425742   -3.844294    0.371538
| 23>   C  -14.514260    6.356273   -0.673105
| 24>   N   -7.346884   -4.520306    0.464928
| 25>   C   -7.442699   -5.999699    0.578571
| 26>   C   -6.033551   -3.834702    0.454869
| 27>   N  -15.558013    6.851435   -0.755183
| 28>   H  -10.770266    5.425285   -0.446573
| 29>   H   -8.782230    4.228494   -0.272243
| 30>   H   -7.618039    2.212672   -0.067112
| 31>   H   -7.552800   -0.082681    0.114843
| 32>   H  -11.005721   -3.467349    0.242343
| 33>   H  -12.984395   -2.269626    0.070798
| 34>   H  -14.147557   -0.254725   -0.133500
| 35>   H  -14.209793    2.046062   -0.316906
| 36>   H  -14.186175    3.967264   -0.470198
| 37>   H   -7.596273   -1.985154    0.261082
| 38>   H  -12.477185    6.491298   -0.600600
| 39>   H   -9.317114   -4.483232    0.385017
| 40>   H   -8.470135   -6.393608    0.741180
| 41>   H   -7.037271   -6.466497   -0.347885
| 42>   H   -6.826356   -6.344051    1.439976
| 43>   H   -5.869588   -3.281939   -0.498060
| 44>   H   -5.921798   -3.158665    1.332994
| 45>   H   -5.214433   -4.585363    0.525740
| 46> *
| 47> 
| 48>                          ****END OF INPUT****
================================================================================

                       *****************************
                       * Geometry Optimization Run *
                       *****************************

Geometry optimization settings:
Update method            Update   .... BFGS
Choice of coordinates    CoordSys .... Z-matrix Internals
Initial Hessian          InHess   .... Almoef's Model

Convergence Tolerances:
Energy Change            TolE     ....  5.0000e-06 Eh
Max. Gradient            TolMAXG  ....  3.0000e-04 Eh/bohr
RMS Gradient             TolRMSG  ....  1.0000e-04 Eh/bohr
Max. Displacement        TolMAXD  ....  4.0000e-03 bohr
RMS Displacement         TolRMSD  ....  2.0000e-03 bohr
Strict Convergence                ....  False
------------------------------------------------------------------------------
                        ORCA OPTIMIZATION COORDINATE SETUP
------------------------------------------------------------------------------

The optimization will be done in new redundant internal coordinates
Making redundant internal coordinates   ...  (new redundants) done
Evaluating the initial hessian          ...  (Almloef) done
Evaluating the coordinates              ...  done
Calculating the B-matrix                .... done
Calculating the G-matrix                .... done
Diagonalizing the G-matrix              .... done
Small eigenvalue found = 2.390e-03
Small eigenvalue found = 8.714e-03
Small eigenvalue found = 1.004e-02
Small eigenvalue found = 1.894e-02
Small eigenvalue found = 2.225e-02
Small eigenvalue found = 2.611e-02
The first mode is                       ....  108
The number of degrees of freedom        ....  123

    -----------------------------------------------------------------
                    Redundant Internal Coordinates


    -----------------------------------------------------------------
         Definition                    Initial Value    Approx d2E/dq
    -----------------------------------------------------------------
      1. B(C   1,C   0)                  1.3474         0.730540   
      2. B(C   2,C   1)                  1.3367         0.759978   
      3. B(C   3,C   2)                  1.3393         0.752733   
      4. B(C   4,C   3)                  1.3392         0.752955   
      5. B(C   5,C   4)                  1.3375         0.757647   
      6. B(C   6,C   5)                  1.3488         0.726950   
      7. B(C   7,C   6)                  1.3634         0.688857   
      8. B(C   8,C   7)                  1.3479         0.729382   
      9. B(C   9,C   8)                  1.3366         0.760123   
     10. B(C  10,C   9)                  1.3390         0.753626   
     11. B(C  11,C  10)                  1.3394         0.752340   
     12. B(C  12,C  11)                  1.3374         0.757899   
     13. B(C  13,C  12)                  1.3482         0.728520   
     14. B(C  13,C   0)                  1.3622         0.691962   
     15. B(C  14,C   3)                  1.3454         0.735941   
     16. B(C  14,C  13)                  1.3590         0.700144   
     17. B(C  15,C  14)                  1.3577         0.703620   
     18. B(C  15,C  10)                  1.3454         0.735917   
     19. B(C  15,C   6)                  1.3594         0.699059   
     20. B(C  16,C   0)                  1.3555         0.709269   
     21. B(C  17,C   7)                  1.3571         0.705184   
     22. B(C  18,C  16)                  1.3467         0.732633   
     23. B(C  19,C  17)                  1.3489         0.726585   
     24. B(C  20,C  18)                  1.3164         0.818793   
     25. B(N  21,C  19)                  1.2766         0.848858   
     26. B(C  22,N  21)                  1.4868         0.392076   
     27. B(C  23,N  21)                  1.4816         0.399769   
     28. B(N  24,C  20)                  1.1582         1.311463   
     29. B(H  25,C   1)                  1.1000         0.347083   
     30. B(H  26,C   2)                  1.1041         0.341931   
     31. B(H  27,C   4)                  1.1044         0.341501   
     32. B(H  28,C   5)                  1.0989         0.348531   
     33. B(H  29,C   8)                  1.0997         0.347514   
     34. B(H  30,C   9)                  1.1042         0.341841   
     35. B(H  31,C  11)                  1.1044         0.341577   
     36. B(H  32,C  12)                  1.0989         0.348539   
     37. B(H  33,C  16)                  1.1002         0.346899   
     38. B(H  34,C  17)                  1.0945         0.354221   
     39. B(H  35,C  18)                  1.0988         0.348685   
     40. B(H  36,C  19)                  1.0968         0.351218   
     41. B(H  37,C  22)                  1.1123         0.331765   
     42. B(H  38,C  22)                  1.1138         0.329930   
     43. B(H  39,C  22)                  1.1138         0.329993   
     44. B(H  40,C  23)                  1.1138         0.329978   
     45. B(H  41,C  23)                  1.1138         0.329916   
     46. B(H  42,C  23)                  1.1133         0.330542   
     47. A(C   1,C   0,C  13)          117.0601         0.456133   
     48. A(C  13,C   0,C  16)          124.2356         0.453686   
     49. A(C   1,C   0,C  16)          118.7043         0.458191   
     50. A(C   2,C   1,H  25)          114.5639         0.363060   
     51. A(C   0,C   1,C   2)          122.1079         0.464007   
     52. A(C   0,C   1,H  25)          123.3282         0.360620   
     53. A(C   3,C   2,H  26)          121.2167         0.361542   
     54. A(C   1,C   2,C   3)          119.9300         0.466556   
     55. A(C   1,C   2,H  26)          118.8533         0.362134   
     56. A(C   4,C   3,C  14)          120.2691         0.463844   
     57. A(C   2,C   3,C  14)          120.4942         0.463819   
     58. A(C   2,C   3,C   4)          119.2367         0.465763   
     59. A(C   5,C   4,H  27)          118.7886         0.361866   
     60. A(C   3,C   4,C   5)          120.3059         0.466319   
     61. A(C   3,C   4,H  27)          120.9055         0.361483   
     62. A(C   4,C   5,H  28)          113.2459         0.363127   
     63. A(C   4,C   5,C   6)          122.4062         0.463329   
     64. A(C   6,C   5,H  28)          124.3479         0.360573   
     65. A(C   5,C   6,C   7)          122.5764         0.455351   
     66. A(C   7,C   6,C  15)          121.7086         0.452121   
     67. A(C   5,C   6,C  15)          115.7150         0.456572   
     68. A(C   6,C   7,C   8)          116.8234         0.455628   
     69. A(C   8,C   7,C  17)          119.0401         0.457577   
     70. A(C   6,C   7,C  17)          124.1365         0.452839   
     71. A(C   9,C   8,H  29)          114.1029         0.363149   
     72. A(C   7,C   8,H  29)          123.5961         0.360599   
     73. A(C   7,C   8,C   9)          122.3010         0.463889   
     74. A(C  10,C   9,H  30)          121.1827         0.361599   
     75. A(C   8,C   9,C  10)          119.9376         0.466674   
     76. A(C   8,C   9,H  30)          118.8797         0.362129   
     77. A(C  11,C  10,C  15)          120.4290         0.463772   
     78. A(C   9,C  10,C  15)          120.3850         0.463917   
     79. A(C   9,C  10,C  11)          119.1860         0.465795   
     80. A(C  10,C  11,H  31)          120.9543         0.361446   
     81. A(C  10,C  11,C  12)          120.2934         0.466277   
     82. A(C  12,C  11,H  31)          118.7522         0.361900   
     83. A(C  13,C  12,H  32)          124.1763         0.360707   
     84. A(C  11,C  12,H  32)          113.6002         0.363150   
     85. A(C  11,C  12,C  13)          122.2235         0.463540   
     86. A(C  12,C  13,C  14)          115.9444         0.456881   
     87. A(C   0,C  13,C  14)          121.6655         0.452619   
     88. A(C   0,C  13,C  12)          122.3901         0.455903   
     89. A(C  13,C  14,C  15)          123.3080         0.453996   
     90. A(C   3,C  14,C  15)          117.9496         0.458139   
     91. A(C   3,C  14,C  13)          118.7423         0.457725   
     92. A(C  10,C  15,C  14)          117.8016         0.458136   
     93. A(C   6,C  15,C  14)          123.3542         0.453868   
     94. A(C   6,C  15,C  10)          118.8443         0.457593   
     95. A(C  18,C  16,H  33)          111.1184         0.360764   
     96. A(C   0,C  16,H  33)          119.7285         0.358777   
     97. A(C   0,C  16,C  18)          129.1531         0.458431   
     98. A(C  19,C  17,H  34)          112.6934         0.361540   
     99. A(C   7,C  17,H  34)          117.9270         0.359702   
    100. A(C   7,C  17,C  19)          129.3795         0.457256   
    101. A(C  20,C  18,H  35)          115.2280         0.368014   
    102. A(C  16,C  18,H  35)          123.9406         0.361080   
    103. A(C  16,C  18,C  20)          120.8315         0.470635   
    104. A(C  17,C  19,N  21)          127.9103         0.469881   
    105. A(N  21,C  19,H  36)          112.1754         0.368443   
    106. A(C  17,C  19,H  36)          119.9142         0.361015   
    107. L(C  18,C  20,N  24,C  16, 2) 180.0091         0.520811   
    108. L(C  18,C  20,N  24,C  16, 1) 180.0841         0.520811   
    109. A(C  22,N  21,C  23)          121.2040         0.366041   
    110. A(C  19,N  21,C  23)          120.2391         0.418968   
    111. A(C  19,N  21,C  22)          118.5567         0.417520   
    112. A(H  38,C  22,H  39)          108.1984         0.283009   
    113. A(H  37,C  22,H  39)          106.7744         0.283253   
    114. A(N  21,C  22,H  39)          109.3345         0.320333   
    115. A(H  37,C  22,H  38)          108.0234         0.283245   
    116. A(N  21,C  22,H  38)          109.2667         0.320323   
    117. A(N  21,C  22,H  37)          115.0280         0.320614   
    118. A(H  41,C  23,H  42)          106.5728         0.283080   
    119. A(H  40,C  23,H  42)          106.3070         0.283089   
    120. A(N  21,C  23,H  42)          109.8620         0.321440   
    121. A(H  40,C  23,H  41)          111.0100         0.283005   
    122. A(N  21,C  23,H  41)          111.3743         0.321340   
    123. A(N  21,C  23,H  40)          111.4675         0.321350   
    124. D(H  25,C   1,C   0,C  13)   -179.9930         0.037872   
    125. D(C   2,C   1,C   0,C  13)      0.0168         0.037872   
    126. D(C   2,C   1,C   0,C  16)   -179.9637         0.037872   
    127. D(H  25,C   1,C   0,C  16)      0.0265         0.037872   
    128. D(H  26,C   2,C   1,C   0)    179.9902         0.041296   
    129. D(C   3,C   2,C   1,C   0)      0.0112         0.041296   
    130. D(H  26,C   2,C   1,H  25)     -0.0008         0.041296   
    131. D(C   3,C   2,C   1,H  25)   -179.9798         0.041296   
    132. D(C  14,C   3,C   2,H  26)   -179.9969         0.040436   
    133. D(C   4,C   3,C   2,C   1)    179.9749         0.040436   
    134. D(C   4,C   3,C   2,H  26)     -0.0035         0.040436   
    135. D(C  14,C   3,C   2,C   1)     -0.0185         0.040436   
    136. D(H  27,C   4,C   3,C   2)      0.0149         0.040463   
    137. D(C   5,C   4,C   3,C  14)      0.0215         0.040463   
    138. D(C   5,C   4,C   3,C   2)   -179.9719         0.040463   
    139. D(H  27,C   4,C   3,C  14)   -179.9917         0.040463   
    140. D(H  28,C   5,C   4,H  27)     -0.0060         0.041018   
    141. D(C   6,C   5,C   4,C   3)     -0.0168         0.041018   
    142. D(C   6,C   5,C   4,H  27)    179.9961         0.041018   
    143. D(H  28,C   5,C   4,C   3)    179.9810         0.041018   
    144. D(C  15,C   6,C   5,H  28)    179.9956         0.037467   
    145. D(C  15,C   6,C   5,C   4)     -0.0068         0.037467   
    146. D(C   7,C   6,C   5,H  28)     -0.0163         0.037467   
    147. D(C   7,C   6,C   5,C   4)    179.9813         0.037467   
    148. D(C  17,C   7,C   6,C  15)    179.9563         0.033332   
    149. D(C  17,C   7,C   6,C   5)     -0.0312         0.033332   
    150. D(C   8,C   7,C   6,C   5)    179.9702         0.033332   
    151. D(C   8,C   7,C   6,C  15)     -0.0424         0.033332   
    152. D(H  29,C   8,C   7,C   6)   -179.9729         0.037741   
    153. D(C   9,C   8,C   7,C  17)   -179.9792         0.037741   
    154. D(C   9,C   8,C   7,C   6)      0.0195         0.037741   
    155. D(H  29,C   8,C   7,C  17)      0.0284         0.037741   
    156. D(H  30,C   9,C   8,H  29)     -0.0023         0.041313   
    157. D(H  30,C   9,C   8,C   7)   -179.9953         0.041313   
    158. D(C  10,C   9,C   8,H  29)   -179.9916         0.041313   
    159. D(C  10,C   9,C   8,C   7)      0.0153         0.041313   
    160. D(C  15,C  10,C   9,H  30)    179.9824         0.040542   
    161. D(C  15,C  10,C   9,C   8)     -0.0285         0.040542   
    162. D(C  11,C  10,C   9,H  30)     -0.0139         0.040542   
    163. D(C  11,C  10,C   9,C   8)    179.9752         0.040542   
    164. D(H  31,C  11,C  10,C  15)   -179.9902         0.040390   
    165. D(H  31,C  11,C  10,C   9)      0.0061         0.040390   
    166. D(C  12,C  11,C  10,C  15)      0.0184         0.040390   
    167. D(C  12,C  11,C  10,C   9)   -179.9853         0.040390   
    168. D(H  32,C  12,C  11,H  31)      0.0043         0.041048   
    169. D(H  32,C  12,C  11,C  10)    179.9959         0.041048   
    170. D(C  13,C  12,C  11,H  31)   -179.9968         0.041048   
    171. D(C  13,C  12,C  11,C  10)     -0.0052         0.041048   
    172. D(C  14,C  13,C  12,H  32)    179.9793         0.037644   
    173. D(C   0,C  13,C  12,H  32)     -0.0265         0.037644   
    174. D(C   0,C  13,C  12,C  11)    179.9748         0.037644   
    175. D(C  14,C  13,C   0,C  16)    179.9407         0.033658   
    176. D(C  12,C  13,C   0,C  16)     -0.0532         0.033658   
    177. D(C  14,C  13,C  12,C  11)     -0.0195         0.037644   
    178. D(C  14,C  13,C   0,C   1)     -0.0386         0.033658   
    179. D(C  12,C  13,C   0,C   1)    179.9675         0.033658   
    180. D(C   3,C  14,C  13,C  12)   -179.9737         0.034526   
    181. D(C   3,C  14,C  13,C   0)      0.0321         0.034526   
    182. D(C  15,C  14,C   3,C   4)     -0.0023         0.038486   
    183. D(C  15,C  14,C   3,C   2)    179.9910         0.038486   
    184. D(C  13,C  14,C   3,C   4)   -179.9961         0.038486   
    185. D(C  15,C  14,C  13,C   0)   -179.9613         0.034526   
    186. D(C  13,C  14,C   3,C   2)     -0.0028         0.038486   
    187. D(C  15,C  14,C  13,C  12)      0.0330         0.034526   
    188. D(C  10,C  15,C  14,C  13)     -0.0210         0.034899   
    189. D(C   6,C  15,C  14,C  13)    179.9707         0.034899   
    190. D(C   6,C  15,C  14,C   3)     -0.0227         0.034899   
    191. D(C  14,C  15,C  10,C  11)     -0.0056         0.038484   
    192. D(C  14,C  15,C  10,C   9)    179.9982         0.038484   
    193. D(C   6,C  15,C  10,C  11)   -179.9977         0.038484   
    194. D(C   6,C  15,C  10,C   9)      0.0060         0.038484   
    195. D(C  14,C  15,C   6,C   7)   -179.9613         0.034410   
    196. D(C  14,C  15,C   6,C   5)      0.0269         0.034410   
    197. D(C  10,C  15,C  14,C   3)    179.9856         0.034899   
    198. D(C  10,C  15,C   6,C   7)      0.0303         0.034410   
    199. D(C  10,C  15,C   6,C   5)   -179.9815         0.034410   
    200. D(H  33,C  16,C   0,C  13)      0.0013         0.035510   
    201. D(H  33,C  16,C   0,C   1)    179.9802         0.035510   
    202. D(C  18,C  16,C   0,C  13)   -179.9813         0.035510   
    203. D(C  18,C  16,C   0,C   1)     -0.0023         0.035510   
    204. D(H  34,C  17,C   7,C   8)   -179.9336         0.035068   
    205. D(H  34,C  17,C   7,C   6)      0.0678         0.035068   
    206. D(C  19,C  17,C   7,C   8)      0.0408         0.035068   
    207. D(C  19,C  17,C   7,C   6)   -179.9578         0.035068   
    208. D(H  35,C  18,C  16,H  33)   -179.9925         0.038109   
    209. D(H  35,C  18,C  16,C   0)     -0.0087         0.038109   
    210. D(C  20,C  18,C  16,H  33)     -0.0039         0.038109   
    211. D(C  20,C  18,C  16,C   0)    179.9798         0.038109   
    212. D(H  36,C  19,C  17,H  34)   -179.9856         0.037426   
    213. D(H  36,C  19,C  17,C   7)      0.0388         0.037426   
    214. D(N  21,C  19,C  17,H  34)     -0.1117         0.037426   
    215. D(N  21,C  19,C  17,C   7)    179.9128         0.037426   
    216. D(C  23,N  21,C  19,H  36)    179.5735         0.062364   
    217. D(C  23,N  21,C  19,C  17)     -0.3085         0.062364   
    218. D(C  22,N  21,C  19,H  36)     -0.2367         0.062364   
    219. D(C  22,N  21,C  19,C  17)    179.8813         0.062364   
    220. D(H  39,C  22,N  21,C  23)     50.4647         0.013137   
    221. D(H  39,C  22,N  21,C  19)   -129.7270         0.013137   
    222. D(H  38,C  22,N  21,C  23)    -67.7810         0.013137   
    223. D(H  38,C  22,N  21,C  19)    112.0273         0.013137   
    224. D(H  37,C  22,N  21,C  23)    170.5554         0.013137   
    225. D(H  37,C  22,N  21,C  19)     -9.6363         0.013137   
    226. D(H  42,C  23,N  21,C  22)      0.8685         0.013645   
    227. D(H  42,C  23,N  21,C  19)   -178.9366         0.013645   
    228. D(H  41,C  23,N  21,C  22)   -116.9750         0.013645   
    229. D(H  41,C  23,N  21,C  19)     63.2199         0.013645   
    230. D(H  40,C  23,N  21,C  22)    118.4402         0.013645   
    231. D(H  40,C  23,N  21,C  19)    -61.3649         0.013645   
    -----------------------------------------------------------------

Number of atoms                         .... 43
Number of degrees of freedom            .... 231

         *************************************************************
         *                GEOMETRY OPTIMIZATION CYCLE   1            *
         *************************************************************
---------------------------------
CARTESIAN COORDINATES (ANGSTROEM)
---------------------------------
  C    -12.076799    3.710487   -0.363930
  C    -10.882321    4.334033   -0.364956
  C     -9.730517    3.663047   -0.265714
  C     -9.741835    2.327887   -0.161211
  C     -8.579721    1.669598   -0.063065
  C     -8.566062    0.336259    0.041724
  C     -9.696455   -0.399445    0.054170
  C     -9.686563   -1.758690    0.160458
  C    -10.884043   -2.377392    0.161754
  C    -12.035310   -1.705383    0.063913
  C    -12.023095   -0.370534   -0.040325
  C    -13.185557    0.287659   -0.138029
  C    -13.199175    1.620857   -0.243458
  C    -12.066906    2.352584   -0.256196
  C    -10.905974    1.653403   -0.154805
  C    -10.857203    0.300933   -0.046725
  C    -13.202002    4.458963   -0.468962
  C     -8.558685   -2.506352    0.262864
  C    -13.327072    5.795194   -0.580021
  C     -8.425742   -3.844294    0.371538
  C    -14.514260    6.356273   -0.673105
  N     -7.346884   -4.520306    0.464928
  C     -7.442699   -5.999699    0.578571
  C     -6.033551   -3.834702    0.454869
  N    -15.558013    6.851435   -0.755183
  H    -10.770266    5.425285   -0.446573
  H     -8.782230    4.228494   -0.272243
  H     -7.618039    2.212672   -0.067112
  H     -7.552800   -0.082681    0.114843
  H    -11.005721   -3.467349    0.242343
  H    -12.984395   -2.269626    0.070798
  H    -14.147557   -0.254725   -0.133500
  H    -14.209793    2.046062   -0.316906
  H    -14.186175    3.967264   -0.470198
  H     -7.596273   -1.985154    0.261082
  H    -12.477185    6.491298   -0.600600
  H     -9.317114   -4.483232    0.385017
  H     -8.470135   -6.393608    0.741180
  H     -7.037271   -6.466497   -0.347885
  H     -6.826356   -6.344051    1.439976
  H     -5.869588   -3.281939   -0.498060
  H     -5.921798   -3.158665    1.332994
  H     -5.214433   -4.585363    0.525740

----------------------------
CARTESIAN COORDINATES (A.U.)
----------------------------
  NO LB      ZA    FRAG     MASS         X           Y           Z
   0 C     6.0000    0    12.011  -22.821843    7.011804   -0.687728
   1 C     6.0000    0    12.011  -20.564606    8.190135   -0.689667
   2 C     6.0000    0    12.011  -18.388012    6.922156   -0.502127
   3 C     6.0000    0    12.011  -18.409400    4.399069   -0.304645
   4 C     6.0000    0    12.011  -16.213323    3.155083   -0.119176
   5 C     6.0000    0    12.011  -16.187511    0.635437    0.078847
   6 C     6.0000    0    12.011  -18.323644   -0.754842    0.102366
   7 C     6.0000    0    12.011  -18.304951   -3.323442    0.303222
   8 C     6.0000    0    12.011  -20.567860   -4.492620    0.305671
   9 C     6.0000    0    12.011  -22.743440   -3.222707    0.120778
  10 C     6.0000    0    12.011  -22.720357   -0.700208   -0.076203
  11 C     6.0000    0    12.011  -24.917092    0.543597   -0.260837
  12 C     6.0000    0    12.011  -24.942826    3.062976   -0.460069
  13 C     6.0000    0    12.011  -22.803148    4.445739   -0.484140
  14 C     6.0000    0    12.011  -20.609304    3.124479   -0.292539
  15 C     6.0000    0    12.011  -20.517140    0.568681   -0.088297
  16 C     6.0000    0    12.011  -24.948168    8.426219   -0.886210
  17 C     6.0000    0    12.011  -16.173571   -4.736319    0.496741
  18 C     6.0000    0    12.011  -25.184516   10.951330   -1.096081
  19 C     6.0000    0    12.011  -15.922345   -7.264663    0.702105
  20 C     6.0000    0    12.011  -27.427976   12.011615   -1.271984
  21 N     7.0000    0    14.007  -13.883599   -8.542140    0.878587
  22 C     6.0000    0    12.011  -14.064663  -11.337788    1.093341
  23 C     6.0000    0    12.011  -11.401759   -7.246537    0.859578
  24 N     7.0000    0    14.007  -29.400384   12.947336   -1.427089
  25 H     1.0000    0     1.008  -20.352853   10.252303   -0.843901
  26 H     1.0000    0     1.008  -16.596010    7.990696   -0.514465
  27 H     1.0000    0     1.008  -14.396007    4.181344   -0.126823
  28 H     1.0000    0     1.008  -14.272724   -0.156244    0.217022
  29 H     1.0000    0     1.008  -20.797799   -6.552340    0.457962
  30 H     1.0000    0     1.008  -24.536951   -4.288972    0.133789
  31 H     1.0000    0     1.008  -26.735008   -0.481360   -0.252278
  32 H     1.0000    0     1.008  -26.852617    3.866497   -0.598866
  33 H     1.0000    0     1.008  -26.807986    7.497042   -0.888545
  34 H     1.0000    0     1.008  -14.354876   -3.751397    0.493373
  35 H     1.0000    0     1.008  -23.578463   12.266775   -1.134970
  36 H     1.0000    0     1.008  -17.606794   -8.472081    0.727577
  37 H     1.0000    0     1.008  -16.006235  -12.082168    1.400627
  38 H     1.0000    0     1.008  -13.298515  -12.219908   -0.657407
  39 H     1.0000    0     1.008  -12.899943  -11.988519    2.721160
  40 H     1.0000    0     1.008  -11.091914   -6.201966   -0.941197
  41 H     1.0000    0     1.008  -11.190576   -5.969012    2.518994
  42 H     1.0000    0     1.008   -9.853850   -8.665080    0.993505

--------------------------------
INTERNAL COORDINATES (ANGSTROEM)
--------------------------------
 C      0   0   0     0.000000000000     0.00000000     0.00000000
 C      1   0   0     1.347437701445     0.00000000     0.00000000
 C      2   1   0     1.336683822441   122.10792643     0.00000000
 C      3   2   1     1.339291305032   119.92996026     0.00000000
 C      4   3   2     1.339210959421   119.23670881   179.97489494
 C      5   4   3     1.337520164978   120.30591020   180.02807868
 C      6   5   4     1.348778563361   122.40622700     0.00000000
 C      7   6   5     1.363430218468   122.57641292   179.98131109
 C      8   7   6     1.347869502148   116.82342239   179.97018352
 C      9   8   7     1.336631835118   122.30101871     0.00000000
 C     10   9   8     1.338968490918   119.93764245     0.00000000
 C     11  10   9     1.339433461695   119.18597921   179.97520172
 C     12  11  10     1.337429486429   120.29344913   180.01466864
 C     13  12  11     1.348191287442   122.22350032     0.00000000
 C      4   3   2     1.345432761015   120.49418622     0.00000000
 C     11  10   9     1.345441580951   120.38502128   359.97151099
 C      1   2   3     1.355481403343   118.70429931   180.03630587
 C      8   7   6     1.357053513302   124.13651750   359.96882672
 C     17   1   2     1.346658788165   129.15314396     0.00000000
 C     18   8   7     1.348915369802   129.37953118   180.04223480
 C     19  17   1     1.316392655191   120.83145938   179.97982045
 N     20  18   8     1.276576868194   127.91033174   179.91279245
 C     22  20  18     1.486841919682   118.55669041   179.88130693
 C     22  20  18     1.481552428092   120.23906990   359.69151929
 N     21  19  17     1.158163429459   179.91577813   183.08232474
 H      2   1   3     1.100022083968   123.32817070   179.99020872
 H      3   2   1     1.104092918200   118.85329084   179.99016036
 H      5   4   3     1.104435610078   120.90553731     0.00000000
 H      6   5   4     1.098888980928   113.24585027   179.98103633
 H      9   8   7     1.099684675011   123.59608503   180.02713465
 H     10   9   8     1.104164799067   118.87970170   180.00467999
 H     12  11  10     1.104375350729   120.95432897     0.00000000
 H     13  12  11     1.098882451699   113.60019222   179.99587352
 H     17   1   2     1.100166318438   119.72849474   179.98024490
 H     18   8   7     1.094480419410   117.92704357     0.06778757
 H     19  17   1     1.098768486455   123.94056241     0.00000000
 H     20  18   8     1.096798748025   119.91421422     0.03882822
 H     23  22  20     1.112308734686   115.02797580   350.36373557
 H     23  22  20     1.113819085814   109.26666118   112.02725784
 H     23  22  20     1.113766388242   109.33445038   230.27300611
 H     24  22  20     1.113779367101   111.46746626   298.63512921
 H     24  22  20     1.113830451192   111.37428966    63.21985749
 H     24  22  20     1.113314391125   109.86203295   181.06335818

---------------------------
INTERNAL COORDINATES (A.U.)
---------------------------
 C      0   0   0     0.000000000000     0.00000000     0.00000000
 C      1   0   0     2.546288238252     0.00000000     0.00000000
 C      2   1   0     2.525966352057   122.10792643     0.00000000
 C      3   2   1     2.530893780052   119.92996026     0.00000000
 C      4   3   2     2.530741948851   119.23670881   179.97489494
 C      5   4   3     2.527546810406   120.30591020   180.02807868
 C      6   5   4     2.548822100055   122.40622700     0.00000000
 C      7   6   5     2.576509715618   122.57641292   179.98131109
 C      8   7   6     2.547104223324   116.82342239   179.97018352
 C      9   8   7     2.525868110254   122.30101871     0.00000000
 C     10   9   8     2.530283749784   119.93764245     0.00000000
 C     11  10   9     2.531162417214   119.18597921   179.97520172
 C     12  11  10     2.527375452781   120.29344913   180.01466864
 C     13  12  11     2.547712309404   122.22350032     0.00000000
 C      4   3   2     2.542499449924   120.49418622     0.00000000
 C     11  10   9     2.542516117188   120.38502128   359.97151099
 C      1   2   3     2.561488631942   118.70429931   180.03630587
 C      8   7   6     2.564459489216   124.13651750   359.96882672
 C     17   1   2     2.544816305470   129.15314396     0.00000000
 C     18   8   7     2.549080626764   129.37953118   180.04223480
 C     19  17   1     2.487621603017   120.83145938   179.97982045
 N     20  18   8     2.412380669786   127.91033174   179.91279245
 C     22  20  18     2.809724032632   118.55669041   179.88130693
 C     22  20  18     2.799728342140   120.23906990   359.69151929
 N     21  19  17     2.188611700001   179.91577813   183.08232474
 H      2   1   3     2.078740479965   123.32817070   179.99020872
 H      3   2   1     2.086433241800   118.85329084   179.99016036
 H      5   4   3     2.087080835598   120.90553731     0.00000000
 H      6   5   4     2.076599225538   113.24585027   179.98103633
 H      9   8   7     2.078102869441   123.59608503   180.02713465
 H     10   9   8     2.086569076953   118.87970170   180.00467999
 H     12  11  10     2.086966961930   120.95432897     0.00000000
 H     13  12  11     2.076586887084   113.60019222   179.99587352
 H     17   1   2     2.079013043613   119.72849474   179.98024490
 H     18   8   7     2.068268251624   117.92704357     0.06778757
 H     19  17   1     2.076371523983   123.94056241     0.00000000
 H     20  18   8     2.072649257795   119.91421422     0.03882822
 H     23  22  20     2.101958884924   115.02797580   350.36373557
 H     23  22  20     2.104813034923   109.26666118   112.02725784
 H     23  22  20     2.104713450944   109.33445038   230.27300611
 H     24  22  20     2.104737977432   111.46746626   298.63512921
 H     24  22  20     2.104834512375   111.37428966    63.21985749
 H     24  22  20     2.103859300180   109.86203295   181.06335818

---------------------
BASIS SET INFORMATION
---------------------
There are 3 groups of distinct atoms

 Group   1 Type C   : 7s4p1d contracted to 3s2p1d pattern {511/31/1}
 Group   2 Type N   : 7s4p1d contracted to 3s2p1d pattern {511/31/1}
 Group   3 Type H   : 4s1p contracted to 2s1p pattern {31/1}

Atom   0C    basis set group =>   1
Atom   1C    basis set group =>   1
Atom   2C    basis set group =>   1
Atom   3C    basis set group =>   1
Atom   4C    basis set group =>   1
Atom   5C    basis set group =>   1
Atom   6C    basis set group =>   1
Atom   7C    basis set group =>   1
Atom   8C    basis set group =>   1
Atom   9C    basis set group =>   1
Atom  10C    basis set group =>   1
Atom  11C    basis set group =>   1
Atom  12C    basis set group =>   1
Atom  13C    basis set group =>   1
Atom  14C    basis set group =>   1
Atom  15C    basis set group =>   1
Atom  16C    basis set group =>   1
Atom  17C    basis set group =>   1
Atom  18C    basis set group =>   1
Atom  19C    basis set group =>   1
Atom  20C    basis set group =>   1
Atom  21N    basis set group =>   2
Atom  22C    basis set group =>   1
Atom  23C    basis set group =>   1
Atom  24N    basis set group =>   2
Atom  25H    basis set group =>   3
Atom  26H    basis set group =>   3
Atom  27H    basis set group =>   3
Atom  28H    basis set group =>   3
Atom  29H    basis set group =>   3
Atom  30H    basis set group =>   3
Atom  31H    basis set group =>   3
Atom  32H    basis set group =>   3
Atom  33H    basis set group =>   3
Atom  34H    basis set group =>   3
Atom  35H    basis set group =>   3
Atom  36H    basis set group =>   3
Atom  37H    basis set group =>   3
Atom  38H    basis set group =>   3
Atom  39H    basis set group =>   3
Atom  40H    basis set group =>   3
Atom  41H    basis set group =>   3
Atom  42H    basis set group =>   3
---------------------------------
AUXILIARY/J BASIS SET INFORMATION
---------------------------------
There are 3 groups of distinct atoms

 Group   1 Type C   : 12s5p4d2f1g contracted to 6s4p3d1f1g pattern {711111/2111/211/2/1}
 Group   2 Type N   : 12s5p4d2f1g contracted to 6s4p3d1f1g pattern {711111/2111/211/2/1}
 Group   3 Type H   : 5s2p1d contracted to 3s1p1d pattern {311/2/1}

Atom   0C    basis set group =>   1
Atom   1C    basis set group =>   1
Atom   2C    basis set group =>   1
Atom   3C    basis set group =>   1
Atom   4C    basis set group =>   1
Atom   5C    basis set group =>   1
Atom   6C    basis set group =>   1
Atom   7C    basis set group =>   1
Atom   8C    basis set group =>   1
Atom   9C    basis set group =>   1
Atom  10C    basis set group =>   1
Atom  11C    basis set group =>   1
Atom  12C    basis set group =>   1
Atom  13C    basis set group =>   1
Atom  14C    basis set group =>   1
Atom  15C    basis set group =>   1
Atom  16C    basis set group =>   1
Atom  17C    basis set group =>   1
Atom  18C    basis set group =>   1
Atom  19C    basis set group =>   1
Atom  20C    basis set group =>   1
Atom  21N    basis set group =>   2
Atom  22C    basis set group =>   1
Atom  23C    basis set group =>   1
Atom  24N    basis set group =>   2
Atom  25H    basis set group =>   3
Atom  26H    basis set group =>   3
Atom  27H    basis set group =>   3
Atom  28H    basis set group =>   3
Atom  29H    basis set group =>   3
Atom  30H    basis set group =>   3
Atom  31H    basis set group =>   3
Atom  32H    basis set group =>   3
Atom  33H    basis set group =>   3
Atom  34H    basis set group =>   3
Atom  35H    basis set group =>   3
Atom  36H    basis set group =>   3
Atom  37H    basis set group =>   3
Atom  38H    basis set group =>   3
Atom  39H    basis set group =>   3
Atom  40H    basis set group =>   3
Atom  41H    basis set group =>   3
Atom  42H    basis set group =>   3


           ************************************************************
           *        Program running with 8 parallel MPI-processes     *
           *              working on a common directory               *
           ************************************************************
------------------------------------------------------------------------------
                           ORCA GTO INTEGRAL CALCULATION
                           -- RI-GTO INTEGRALS CHOSEN --
------------------------------------------------------------------------------
------------------------------------------------------------------------------
                   ___                                                        
                  /   \      - P O W E R E D   B Y -                         
                 /     \                                                     
                 |  |  |   _    _      __       _____    __    __             
                 |  |  |  | |  | |    /  \     |  _  \  |  |  /  |          
                  \  \/   | |  | |   /    \    | | | |  |  | /  /          
                 / \  \   | |__| |  /  /\  \   | |_| |  |  |/  /          
                |  |  |   |  __  | /  /__\  \  |    /   |      \           
                |  |  |   | |  | | |   __   |  |    \   |  |\   \          
                \     /   | |  | | |  |  |  |  | |\  \  |  | \   \       
                 \___/    |_|  |_| |__|  |__|  |_| \__\ |__|  \__/        
                                                                              
                      - O R C A' S   B I G   F R I E N D -                    
                                      &                                       
                       - I N T E G R A L  F E E D E R -                       
                                                                              
 v1 FN, 2020, v2 2021                                                         
------------------------------------------------------------------------------


Reading SHARK input file pyrene_deriv_p1_prime.SHARKINP.tmp ... ok
----------------------
SHARK INTEGRAL PACKAGE
----------------------

Number of atoms                             ...     43
Number of basis functions                   ...    440
Number of shells                            ...    204
Maximum angular momentum                    ...      2
Integral batch strategy                     ... SHARK/LIBINT Hybrid
RI-J (if used) integral strategy            ... SPLIT-RIJ (Revised 2003 algorithm where possible)
Printlevel                                  ...      1
Contraction scheme used                     ... SEGMENTED contraction
Coulomb Range Separation                    ... NOT USED
Exchange Range Separation                   ... NOT USED
Finite Nucleus Model                        ... NOT USED
Auxiliary Coulomb fitting basis             ... AVAILABLE
   # of basis functions in Aux-J            ...   1423
   # of shells in Aux-J                     ...    465
   Maximum angular momentum in Aux-J        ...      4
Auxiliary J/K fitting basis                 ... NOT available
Auxiliary Correlation fitting basis         ... NOT available
Auxiliary 'external' fitting basis          ... NOT available
Integral threshold                          ...     2.500000e-11
Primitive cut-off                           ...     2.500000e-12
Primitive pair pre-selection threshold      ...     2.500000e-12

Calculating pre-screening integrals         ... done (  0.0 sec) Dimension = 204
Organizing shell pair data                  ... done (  0.1 sec)
Shell pair information
Total number of shell pairs                 ...     20910
Shell pairs after pre-screening             ...     13805
Total number of primitive shell pairs       ...     76624
Primitive shell pairs kept                  ...     32473
          la=0 lb=0:   4180 shell pairs
          la=1 lb=0:   5104 shell pairs
          la=1 lb=1:   1611 shell pairs
          la=2 lb=0:   1674 shell pairs
          la=2 lb=1:   1053 shell pairs
          la=2 lb=2:    183 shell pairs

Calculating one electron integrals          ... done (  0.0 sec)
Calculating RI/J V-Matrix + Cholesky decomp.... done (  0.2 sec)
Calculating Nuclear repulsion               ... done (  0.0 sec) ENN=   1944.319283797588 Eh

SHARK setup successfully completed in   0.7 seconds

Maximum memory used throughout the entire GTOINT-calculation: 25.1 MB


           ************************************************************
           *        Program running with 8 parallel MPI-processes     *
           *              working on a common directory               *
           ************************************************************
-------------------------------------------------------------------------------
                                 ORCA SCF
-------------------------------------------------------------------------------

------------
SCF SETTINGS
------------
Hamiltonian:
 Density Functional     Method          .... DFT(GTOs)
 Exchange Functional    Exchange        .... B88
   X-Alpha parameter    XAlpha          ....  0.666667
   Becke's b parameter  XBeta           ....  0.004200
 Correlation Functional Correlation     .... LYP
 LDA part of GGA corr.  LDAOpt          .... VWN-5
 Gradients option       PostSCFGGA      .... off
 Hybrid DFT is turned on
   Fraction HF Exchange ScalHFX         ....  0.200000
   Scaling of DF-GGA-X  ScalDFX         ....  0.720000
   Scaling of DF-GGA-C  ScalDFC         ....  0.810000
   Scaling of DF-LDA-C  ScalLDAC        ....  1.000000
   Perturbative correction              ....  0.000000
   Density functional embedding theory  .... OFF
   NL short-range parameter             ....  4.800000
 RI-approximation to the Coulomb term is turned on
   Number of AuxJ basis functions       .... 1423
   RIJ-COSX (HFX calculated with COS-X)).... on


General Settings:
 Integral files         IntName         .... pyrene_deriv_p1_prime
 Hartree-Fock type      HFTyp           .... RHF
 Total Charge           Charge          ....    0
 Multiplicity           Mult            ....    1
 Number of Electrons    NEL             ....  170
 Basis Dimension        Dim             ....  440
 Nuclear Repulsion      ENuc            ....   1944.3192837976 Eh

Convergence Acceleration:
 DIIS                   CNVDIIS         .... on
   Start iteration      DIISMaxIt       ....    12
   Startup error        DIISStart       ....  0.200000
   # of expansion vecs  DIISMaxEq       ....     5
   Bias factor          DIISBfac        ....   1.050
   Max. coefficient     DIISMaxC        ....  10.000
 Trust-Rad. Augm. Hess. CNVTRAH         .... auto
   Auto Start mean grad. ratio tolernc. ....  1.125000
   Auto Start start iteration           ....    20
   Auto Start num. interpolation iter.  ....    10
   Max. Number of Micro iterations      ....    16
   Max. Number of Macro iterations      .... Maxiter - #DIIS iter
   Number of Davidson start vectors     ....     2
   Converg. threshold I  (grad. norm)   ....   1.000e-05
   Converg. threshold II (energy diff.) ....   1.000e-08
   Grad. Scal. Fac. for Micro threshold ....   0.100
   Minimum threshold for Micro iter.    ....   0.010
   NR start threshold (gradient norm)   ....   0.001
   Initial trust radius                 ....   0.400
   Minimum AH scaling param. (alpha)    ....   1.000
   Maximum AH scaling param. (alpha)    .... 1000.000
   Orbital update algorithm             .... Taylor
   White noise on init. David. guess    .... on
   Maximum white noise                  ....   0.010
   Quad. conv. algorithm                .... NR
 SOSCF                  CNVSOSCF        .... on
   Start iteration      SOSCFMaxIt      ....   150
   Startup grad/error   SOSCFStart      ....  0.003300
 Level Shifting         CNVShift        .... on
   Level shift para.    LevelShift      ....    0.2500
   Turn off err/grad.   ShiftErr        ....    0.0010
 Zerner damping         CNVZerner       .... off
 Static damping         CNVDamp         .... on
   Fraction old density DampFac         ....    0.7000
   Max. Damping (<1)    DampMax         ....    0.9800
   Min. Damping (>=0)   DampMin         ....    0.0000
   Turn off err/grad.   DampErr         ....    0.1000
 Fernandez-Rico         CNVRico         .... off

SCF Procedure:
 Maximum # iterations   MaxIter         ....   125
 SCF integral mode      SCFMode         .... Direct
   Integral package                     .... SHARK and LIBINT hybrid scheme
 Reset frequency        DirectResetFreq ....    20
 Integral Threshold     Thresh          ....  2.500e-11 Eh
 Primitive CutOff       TCut            ....  2.500e-12 Eh

Convergence Tolerance:
 Convergence Check Mode ConvCheckMode   .... Total+1el-Energy
 Convergence forced     ConvForced      .... 0
 Energy Change          TolE            ....  1.000e-08 Eh
 1-El. energy change                    ....  1.000e-05 Eh
 Orbital Gradient       TolG            ....  1.000e-05
 Orbital Rotation angle TolX            ....  1.000e-05
 DIIS Error             TolErr          ....  5.000e-07


Diagonalization of the overlap matrix:
Smallest eigenvalue                        ... 1.177e-04
Time for diagonalization                   ...    0.027 sec
Threshold for overlap eigenvalues          ... 1.000e-08
Number of eigenvalues below threshold      ... 0
Time for construction of square roots      ...    0.022 sec
Total time needed                          ...    0.050 sec

Time for model grid setup =    0.334 sec

------------------------------
INITIAL GUESS: MODEL POTENTIAL
------------------------------
Loading Hartree-Fock densities                     ... done
Calculating cut-offs                               ... done
Initializing the effective Hamiltonian             ... done
Setting up the integral package (SHARK)            ... done
Starting the Coulomb interaction                   ... done (   0.2 sec)
Reading the grid                                   ... done
Mapping shells                                     ... done
Starting the XC term evaluation                    ... done (   0.1 sec)
  promolecular density results
     # of electrons  =    169.983283385
     EX              =   -137.267340972
     EC              =     -5.775679394
     EX+EC           =   -143.043020365
Transforming the Hamiltonian                       ... done (   0.0 sec)
Diagonalizing the Hamiltonian                      ... done (   0.0 sec)
Back transforming the eigenvectors                 ... done (   0.0 sec)
Now organizing SCF variables                       ... done
                      ------------------
                      INITIAL GUESS DONE (   0.7 sec)
                      ------------------
-------------------
DFT GRID GENERATION
-------------------

General Integration Accuracy     IntAcc      ... 4.388
Radial Grid Type                 RadialGrid  ... OptM3 with GC (2021)
Angular Grid (max. ang.)         AngularGrid ... 4 (Lebedev-302)
Angular grid pruning method      GridPruning ... 4 (adaptive)
Weight generation scheme         WeightScheme... Becke
Basis function cutoff            BFCut       ... 1.0000e-11
Integration weight cutoff        WCut        ... 1.0000e-14
Angular grids for H and He will be reduced by one unit
Partially contracted basis set               ... off
Rotationally invariant grid construction     ... off

Total number of grid points                  ...   205728
Total number of batches                      ...     3237
Average number of points per batch           ...       63
Average number of grid points per atom       ...     4784
Time for grid setup =    1.367 sec

--------------------
COSX GRID GENERATION
--------------------

GRIDX 1
-------
General Integration Accuracy     IntAcc      ... 3.816
Radial Grid Type                 RadialGrid  ... OptM3 with GC (2021)
Angular Grid (max. ang.)         AngularGrid ... 1 (Lebedev-50)
Angular grid pruning method      GridPruning ... 4 (adaptive)
Weight generation scheme         WeightScheme... Becke
Basis function cutoff            BFCut       ... 1.0000e-11
Integration weight cutoff        WCut        ... 1.0000e-14
Angular grids for H and He will be reduced by one unit
Partially contracted basis set               ... on
Rotationally invariant grid construction     ... off

Total number of grid points                  ...    26206
Total number of batches                      ...      429
Average number of points per batch           ...       61
Average number of grid points per atom       ...      609
UseSFitting                                  ... on

GRIDX 2
-------
General Integration Accuracy     IntAcc      ... 4.020
Radial Grid Type                 RadialGrid  ... OptM3 with GC (2021)
Angular Grid (max. ang.)         AngularGrid ... 2 (Lebedev-110)
Angular grid pruning method      GridPruning ... 4 (adaptive)
Weight generation scheme         WeightScheme... Becke
Basis function cutoff            BFCut       ... 1.0000e-11
Integration weight cutoff        WCut        ... 1.0000e-14
Angular grids for H and He will be reduced by one unit
Partially contracted basis set               ... on
Rotationally invariant grid construction     ... off

Total number of grid points                  ...    56795
Total number of batches                      ...      909
Average number of points per batch           ...       62
Average number of grid points per atom       ...     1321
UseSFitting                                  ... on

GRIDX 3
-------
General Integration Accuracy     IntAcc      ... 4.338
Radial Grid Type                 RadialGrid  ... OptM3 with GC (2021)
Angular Grid (max. ang.)         AngularGrid ... 3 (Lebedev-194)
Angular grid pruning method      GridPruning ... 4 (adaptive)
Weight generation scheme         WeightScheme... Becke
Basis function cutoff            BFCut       ... 1.0000e-11
Integration weight cutoff        WCut        ... 1.0000e-14
Angular grids for H and He will be reduced by one unit
Partially contracted basis set               ... on
Rotationally invariant grid construction     ... off

Total number of grid points                  ...   124415
Total number of batches                      ...     1962
Average number of points per batch           ...       63
Average number of grid points per atom       ...     2893
UseSFitting                                  ... on

Time for X-Grid setup             =    1.401 sec

--------------
SCF ITERATIONS
--------------
ITER       Energy         Delta-E        Max-DP      RMS-DP      [F,P]     Damp
               ***  Starting incremental Fock matrix formation  ***
  0   -994.7111794976   0.000000000000 0.19773379  0.00329629  0.2065395 0.7000
  1   -994.9713984841  -0.260218986461 0.11961706  0.00219883  0.0895168 0.7000
                               ***Turning on DIIS***
  2   -995.0878143089  -0.116415824870 0.22082580  0.00432474  0.0395825 0.0000
  3   -995.2593911096  -0.171576800642 0.03749836  0.00101080  0.0507493 0.0000
  4   -995.2990734803  -0.039682370746 0.02040134  0.00029373  0.0235235 0.0000
  5   -995.3017654797  -0.002691999382 0.00890605  0.00013026  0.0119378 0.0000
                      *** Initiating the SOSCF procedure ***
                           *** Shutting down DIIS ***
                      *** Re-Reading the Fockian *** 
                      *** Removing any level shift *** 
ITER      Energy       Delta-E        Grad      Rot      Max-DP    RMS-DP
  6   -995.30209048  -0.0003250007  0.000717  0.000717  0.002483  0.000046
               *** Restarting incremental Fock matrix formation ***
  7   -995.30201077   0.0000797130  0.000479  0.004109  0.002687  0.000050
  8   -995.30202139  -0.0000106217  0.000465  0.002511  0.001389  0.000032
  9   -995.30202590  -0.0000045147  0.000336  0.002011  0.000846  0.000022
 10   -995.30202901  -0.0000031032  0.000090  0.000463  0.000355  0.000009
 11   -995.30202897   0.0000000390  0.000114  0.000545  0.000211  0.000007
 12   -995.30202955  -0.0000005855  0.000042  0.000217  0.000167  0.000003
 13   -995.30202952   0.0000000347  0.000038  0.000156  0.000089  0.000002
 14   -995.30202964  -0.0000001199  0.000019  0.000038  0.000065  0.000001
 15   -995.30202964  -0.0000000042  0.000032  0.000030  0.000046  0.000001
 16   -995.30202964   0.0000000004  0.000006  0.000015  0.000033  0.000001
 17   -995.30202962   0.0000000225  0.000006  0.000009  0.000019  0.000000
                  ***Gradient check signals convergence***
              ***Rediagonalizing the Fockian in SOSCF/NRSCF***

               *****************************************************
               *                     SUCCESS                       *
               *           SCF CONVERGED AFTER  18 CYCLES          *
               *****************************************************

Old exchange energy                            =    -27.898876255 Eh
New exchange energy                            =    -27.898959896 Eh
Exchange energy change after final integration =     -0.000083641 Eh
Total energy after final integration           =   -995.302113288 Eh
Final COS-X integration done in                =     8.713 sec

----------------
TOTAL SCF ENERGY
----------------

Total Energy       :         -995.30211329 Eh          -27083.54740 eV

Components:
Nuclear Repulsion  :         1944.31928380 Eh           52907.61748 eV
Electronic Energy  :        -2939.62139709 Eh          -79991.16489 eV
One Electron Energy:        -5207.50741399 Eh         -141703.48080 eV
Two Electron Energy:         2267.88601691 Eh           61712.31591 eV
Max COSX asymmetry :            0.00000382 Eh               0.00010 eV

Virial components:
Potential Energy   :        -1984.26302788 Eh          -53994.54202 eV
Kinetic Energy     :          988.96091460 Eh           26910.99461 eV
Virial Ratio       :            2.00641198


DFT components:
N(Alpha)           :       85.000160184703 electrons
N(Beta)            :       85.000160184703 electrons
N(Total)           :      170.000320369407 electrons
E(X)               :     -110.747806771814 Eh       
E(C)               :       -6.802111776064 Eh       
E(XC)              :     -117.549918547878 Eh       
DFET-embed. en.    :        0.000000000000 Eh       

---------------
SCF CONVERGENCE
---------------

  Last Energy change         ...   -2.6662e-08  Tolerance :   1.0000e-08
  Last MAX-Density change    ...    3.5527e-15  Tolerance :   1.0000e-07
  Last RMS-Density change    ...    3.7596e-17  Tolerance :   5.0000e-09
  Last Orbital Gradient      ...    6.9451e-07  Tolerance :   1.0000e-05
  Last Orbital Rotation      ...    3.1421e-06  Tolerance :   1.0000e-05

             **** THE GBW FILE WAS UPDATED (pyrene_deriv_p1_prime.gbw) ****
             **** DENSITY pyrene_deriv_p1_prime.scfp WAS UPDATED ****
             **** ENERGY FILE WAS UPDATED (pyrene_deriv_p1_prime.en.tmp) ****
             **** THE GBW FILE WAS UPDATED (pyrene_deriv_p1_prime.gbw) ****
             **** DENSITY pyrene_deriv_p1_prime.scfp WAS UPDATED ****
----------------
ORBITAL ENERGIES
----------------

  NO   OCC          E(Eh)            E(eV) 
   0   2.0000     -14.381158      -391.3312 
   1   2.0000     -14.289865      -388.8470 
   2   2.0000     -10.255876      -279.0766 
   3   2.0000     -10.251302      -278.9521 
   4   2.0000     -10.227824      -278.3132 
   5   2.0000     -10.194096      -277.3955 
   6   2.0000     -10.189909      -277.2815 
   7   2.0000     -10.187735      -277.2224 
   8   2.0000     -10.179232      -276.9910 
   9   2.0000     -10.176494      -276.9165 
  10   2.0000     -10.174975      -276.8751 
  11   2.0000     -10.174129      -276.8521 
  12   2.0000     -10.172204      -276.7998 
  13   2.0000     -10.171531      -276.7814 
  14   2.0000     -10.171312      -276.7755 
  15   2.0000     -10.169893      -276.7369 
  16   2.0000     -10.169771      -276.7335 
  17   2.0000     -10.168734      -276.7053 
  18   2.0000     -10.168357      -276.6951 
  19   2.0000     -10.168295      -276.6934 
  20   2.0000     -10.167918      -276.6831 
  21   2.0000     -10.167637      -276.6755 
  22   2.0000     -10.166004      -276.6310 
  23   2.0000     -10.159931      -276.4658 
  24   2.0000     -10.158790      -276.4347 
  25   2.0000      -0.982054       -26.7230 
  26   2.0000      -0.925557       -25.1857 
  27   2.0000      -0.883884       -24.0517 
  28   2.0000      -0.870705       -23.6931 
  29   2.0000      -0.853597       -23.2275 
  30   2.0000      -0.835296       -22.7295 
  31   2.0000      -0.798462       -21.7273 
  32   2.0000      -0.791723       -21.5439 
  33   2.0000      -0.764552       -20.8045 
  34   2.0000      -0.749552       -20.3963 
  35   2.0000      -0.745888       -20.2966 
  36   2.0000      -0.738374       -20.0922 
  37   2.0000      -0.725397       -19.7391 
  38   2.0000      -0.684456       -18.6250 
  39   2.0000      -0.662710       -18.0333 
  40   2.0000      -0.641833       -17.4652 
  41   2.0000      -0.631784       -17.1917 
  42   2.0000      -0.617178       -16.7943 
  43   2.0000      -0.596078       -16.2201 
  44   2.0000      -0.573574       -15.6077 
  45   2.0000      -0.552941       -15.0463 
  46   2.0000      -0.544005       -14.8031 
  47   2.0000      -0.535930       -14.5834 
  48   2.0000      -0.521775       -14.1982 
  49   2.0000      -0.516294       -14.0491 
  50   2.0000      -0.503173       -13.6920 
  51   2.0000      -0.493111       -13.4182 
  52   2.0000      -0.492240       -13.3945 
  53   2.0000      -0.475264       -12.9326 
  54   2.0000      -0.462054       -12.5731 
  55   2.0000      -0.450026       -12.2458 
  56   2.0000      -0.445464       -12.1217 
  57   2.0000      -0.443585       -12.0706 
  58   2.0000      -0.434410       -11.8209 
  59   2.0000      -0.433376       -11.7928 
  60   2.0000      -0.432316       -11.7639 
  61   2.0000      -0.423322       -11.5192 
  62   2.0000      -0.411954       -11.2098 
  63   2.0000      -0.408980       -11.1289 
  64   2.0000      -0.401031       -10.9126 
  65   2.0000      -0.395863       -10.7720 
  66   2.0000      -0.394422       -10.7328 
  67   2.0000      -0.383480       -10.4350 
  68   2.0000      -0.372272       -10.1300 
  69   2.0000      -0.370484       -10.0814 
  70   2.0000      -0.368109       -10.0167 
  71   2.0000      -0.365061        -9.9338 
  72   2.0000      -0.350757        -9.5446 
  73   2.0000      -0.343884        -9.3576 
  74   2.0000      -0.328796        -8.9470 
  75   2.0000      -0.326003        -8.8710 
  76   2.0000      -0.323126        -8.7927 
  77   2.0000      -0.315939        -8.5971 
  78   2.0000      -0.300626        -8.1805 
  79   2.0000      -0.297487        -8.0950 
  80   2.0000      -0.270573        -7.3627 
  81   2.0000      -0.259700        -7.0668 
  82   2.0000      -0.234922        -6.3925 
  83   2.0000      -0.216161        -5.8820 
  84   2.0000      -0.168540        -4.5862 
  85   0.0000      -0.074812        -2.0357 
  86   0.0000      -0.027359        -0.7445 
  87   0.0000      -0.016835        -0.4581 
  88   0.0000       0.004002         0.1089 
  89   0.0000       0.030563         0.8317 
  90   0.0000       0.035835         0.9751 
  91   0.0000       0.047185         1.2840 
  92   0.0000       0.053961         1.4684 
  93   0.0000       0.054504         1.4831 
  94   0.0000       0.063550         1.7293 
  95   0.0000       0.073679         2.0049 
  96   0.0000       0.077895         2.1196 
  97   0.0000       0.079724         2.1694 
  98   0.0000       0.091765         2.4970 
  99   0.0000       0.097888         2.6637 
 100   0.0000       0.098877         2.6906 
 101   0.0000       0.107230         2.9179 
 102   0.0000       0.112735         3.0677 
 103   0.0000       0.119293         3.2461 
 104   0.0000       0.121356         3.3023 
 105   0.0000       0.123210         3.3527 
 106   0.0000       0.140731         3.8295 
 107   0.0000       0.142862         3.8875 
 108   0.0000       0.143081         3.8934 
 109   0.0000       0.159991         4.3536 
 110   0.0000       0.169857         4.6220 
 111   0.0000       0.181580         4.9410 
 112   0.0000       0.199814         5.4372 
 113   0.0000       0.205667         5.5965 
 114   0.0000       0.220954         6.0125 
 115   0.0000       0.236682         6.4405 
 116   0.0000       0.243223         6.6184 
 117   0.0000       0.245170         6.6714 
 118   0.0000       0.257927         7.0186 
 119   0.0000       0.260750         7.0954 
 120   0.0000       0.273096         7.4313 
 121   0.0000       0.282350         7.6831 
 122   0.0000       0.289245         7.8708 
 123   0.0000       0.293368         7.9829 
 124   0.0000       0.293535         7.9875 
 125   0.0000       0.297929         8.1071 
 126   0.0000       0.301670         8.2089 
 127   0.0000       0.314151         8.5485 
 128   0.0000       0.324823         8.8389 
 129   0.0000       0.329094         8.9551 
 130   0.0000       0.340034         9.2528 
 131   0.0000       0.350821         9.5463 
 132   0.0000       0.353199         9.6110 
 133   0.0000       0.355395         9.6708 
 134   0.0000       0.362373         9.8607 
 135   0.0000       0.376215        10.2373 
 136   0.0000       0.378845        10.3089 
 137   0.0000       0.381552        10.3826 
 138   0.0000       0.385409        10.4875 
 139   0.0000       0.392609        10.6834 
 140   0.0000       0.396218        10.7816 
 141   0.0000       0.407163        11.0795 
 142   0.0000       0.425646        11.5824 
 143   0.0000       0.431014        11.7285 
 144   0.0000       0.434061        11.8114 
 145   0.0000       0.439771        11.9668 
 146   0.0000       0.440690        11.9918 
 147   0.0000       0.450956        12.2711 
 148   0.0000       0.455382        12.3916 
 149   0.0000       0.462472        12.5845 
 150   0.0000       0.465136        12.6570 
 151   0.0000       0.473552        12.8860 
 152   0.0000       0.474507        12.9120 
 153   0.0000       0.480578        13.0772 
 154   0.0000       0.483675        13.1615 
 155   0.0000       0.485107        13.2004 
 156   0.0000       0.499922        13.6036 
 157   0.0000       0.506099        13.7716 
 158   0.0000       0.506868        13.7926 
 159   0.0000       0.512348        13.9417 
 160   0.0000       0.515035        14.0148 
 161   0.0000       0.534845        14.5539 
 162   0.0000       0.537651        14.6302 
 163   0.0000       0.543475        14.7887 
 164   0.0000       0.547393        14.8953 
 165   0.0000       0.550413        14.9775 
 166   0.0000       0.556009        15.1298 
 167   0.0000       0.562849        15.3159 
 168   0.0000       0.568648        15.4737 
 169   0.0000       0.581133        15.8134 
 170   0.0000       0.586150        15.9500 
 171   0.0000       0.591884        16.1060 
 172   0.0000       0.593671        16.1546 
 173   0.0000       0.597731        16.2651 
 174   0.0000       0.599123        16.3030 
 175   0.0000       0.604872        16.4594 
 176   0.0000       0.612526        16.6677 
 177   0.0000       0.618797        16.8383 
 178   0.0000       0.623568        16.9681 
 179   0.0000       0.628502        17.1024 
 180   0.0000       0.630513        17.1571 
 181   0.0000       0.635860        17.3026 
 182   0.0000       0.638700        17.3799 
 183   0.0000       0.646611        17.5952 
 184   0.0000       0.647763        17.6265 
 185   0.0000       0.655588        17.8395 
 186   0.0000       0.658808        17.9271 
 187   0.0000       0.659819        17.9546 
 188   0.0000       0.665350        18.1051 
 189   0.0000       0.667540        18.1647 
 190   0.0000       0.677167        18.4267 
 191   0.0000       0.683683        18.6040 
 192   0.0000       0.687150        18.6983 
 193   0.0000       0.692894        18.8546 
 194   0.0000       0.694631        18.9019 
 195   0.0000       0.699307        19.0291 
 196   0.0000       0.705253        19.1909 
 197   0.0000       0.709091        19.2953 
 198   0.0000       0.714083        19.4312 
 199   0.0000       0.720695        19.6111 
 200   0.0000       0.736535        20.0421 
 201   0.0000       0.750828        20.4311 
 202   0.0000       0.753670        20.5084 
 203   0.0000       0.757787        20.6204 
 204   0.0000       0.765010        20.8170 
 205   0.0000       0.771205        20.9856 
 206   0.0000       0.782735        21.2993 
 207   0.0000       0.792129        21.5549 
 208   0.0000       0.801016        21.7968 
 209   0.0000       0.817744        22.2519 
 210   0.0000       0.819189        22.2913 
 211   0.0000       0.835289        22.7294 
 212   0.0000       0.838626        22.8202 
 213   0.0000       0.848157        23.0795 
 214   0.0000       0.853022        23.2119 
 215   0.0000       0.862853        23.4794 
 216   0.0000       0.876066        23.8390 
 217   0.0000       0.882469        24.0132 
 218   0.0000       0.893692        24.3186 
 219   0.0000       0.895333        24.3633 
 220   0.0000       0.895740        24.3743 
 221   0.0000       0.909057        24.7367 
 222   0.0000       0.912528        24.8312 
 223   0.0000       0.925423        25.1820 
 224   0.0000       0.932467        25.3737 
 225   0.0000       0.948249        25.8032 
 226   0.0000       0.952461        25.9178 
 227   0.0000       0.963325        26.2134 
 228   0.0000       0.967941        26.3390 
 229   0.0000       0.985826        26.8257 
 230   0.0000       1.018267        27.7085 
 231   0.0000       1.031626        28.0720 
 232   0.0000       1.042442        28.3663 
 233   0.0000       1.066849        29.0304 
 234   0.0000       1.085996        29.5514 
 235   0.0000       1.096299        29.8318 
 236   0.0000       1.119754        30.4701 
 237   0.0000       1.124595        30.6018 
 238   0.0000       1.135617        30.9017 
 239   0.0000       1.152145        31.3515 
 240   0.0000       1.166731        31.7484 
 241   0.0000       1.172643        31.9092 
 242   0.0000       1.189798        32.3761 
 243   0.0000       1.190280        32.3892 
 244   0.0000       1.190622        32.3985 
 245   0.0000       1.211809        32.9750 
 246   0.0000       1.213656        33.0253 
 247   0.0000       1.221165        33.2296 
 248   0.0000       1.229818        33.4651 
 249   0.0000       1.230839        33.4928 
 250   0.0000       1.235404        33.6170 
 251   0.0000       1.239158        33.7192 
 252   0.0000       1.251656        34.0593 
 253   0.0000       1.253517        34.1099 
 254   0.0000       1.260136        34.2900 
 255   0.0000       1.263793        34.3896 
 256   0.0000       1.266945        34.4753 
 257   0.0000       1.272835        34.6356 
 258   0.0000       1.289700        35.0945 
 259   0.0000       1.290424        35.1142 
 260   0.0000       1.300282        35.3825 
 261   0.0000       1.306353        35.5477 
 262   0.0000       1.310300        35.6551 
 263   0.0000       1.324928        36.0531 
 264   0.0000       1.335326        36.3361 
 265   0.0000       1.344295        36.5801 
 266   0.0000       1.353402        36.8279 
 267   0.0000       1.371029        37.3076 
 268   0.0000       1.376270        37.4502 
 269   0.0000       1.378939        37.5228 
 270   0.0000       1.386298        37.7231 
 271   0.0000       1.386514        37.7290 
 272   0.0000       1.398197        38.0469 
 273   0.0000       1.399761        38.0894 
 274   0.0000       1.409916        38.3658 
 275   0.0000       1.423668        38.7400 
 276   0.0000       1.473881        40.1063 
 277   0.0000       1.478869        40.2421 
 278   0.0000       1.481750        40.3205 
 279   0.0000       1.488182        40.4955 
 280   0.0000       1.495043        40.6822 
 281   0.0000       1.506186        40.9854 
 282   0.0000       1.529695        41.6251 
 283   0.0000       1.562904        42.5288 
 284   0.0000       1.619459        44.0677 
 285   0.0000       1.634472        44.4763 
 286   0.0000       1.649146        44.8756 
 287   0.0000       1.657715        45.1087 
 288   0.0000       1.670395        45.4538 
 289   0.0000       1.676863        45.6298 
 290   0.0000       1.697749        46.1981 
 291   0.0000       1.703290        46.3489 
 292   0.0000       1.706660        46.4406 
 293   0.0000       1.712366        46.5958 
 294   0.0000       1.716072        46.6967 
 295   0.0000       1.729565        47.0639 
 296   0.0000       1.730901        47.1002 
 297   0.0000       1.740339        47.3570 
 298   0.0000       1.742369        47.4123 
 299   0.0000       1.748375        47.5757 
 300   0.0000       1.752906        47.6990 
 301   0.0000       1.757709        47.8297 
 302   0.0000       1.761962        47.9454 
 303   0.0000       1.770421        48.1756 
 304   0.0000       1.773371        48.2559 
 305   0.0000       1.776699        48.3464 
 306   0.0000       1.784508        48.5589 
 307   0.0000       1.791229        48.7418 
 308   0.0000       1.794425        48.8288 
 309   0.0000       1.794653        48.8350 
 310   0.0000       1.808037        49.1992 
 311   0.0000       1.808765        49.2190 
 312   0.0000       1.815971        49.4151 
 313   0.0000       1.820338        49.5339 
 314   0.0000       1.833964        49.9047 
 315   0.0000       1.845872        50.2287 
 316   0.0000       1.854416        50.4612 
 317   0.0000       1.861178        50.6452 
 318   0.0000       1.870441        50.8973 
 319   0.0000       1.878762        51.1237 
 320   0.0000       1.904982        51.8372 
 321   0.0000       1.909209        51.9522 
 322   0.0000       1.912917        52.0531 
 323   0.0000       1.931261        52.5523 
 324   0.0000       1.933015        52.6000 
 325   0.0000       1.936920        52.7063 
 326   0.0000       1.951229        53.0956 
 327   0.0000       1.953176        53.1486 
 328   0.0000       1.970047        53.6077 
 329   0.0000       1.978521        53.8383 
 330   0.0000       1.988729        54.1161 
 331   0.0000       1.992430        54.2168 
 332   0.0000       1.999102        54.3983 
 333   0.0000       2.009341        54.6769 
 334   0.0000       2.023935        55.0741 
 335   0.0000       2.035280        55.3828 
 336   0.0000       2.045361        55.6571 
 337   0.0000       2.054077        55.8943 
 338   0.0000       2.068279        56.2807 
 339   0.0000       2.070885        56.3516 
 340   0.0000       2.082059        56.6557 
 341   0.0000       2.099039        57.1177 
 342   0.0000       2.111327        57.4521 
 343   0.0000       2.121973        57.7418 
 344   0.0000       2.129958        57.9591 
 345   0.0000       2.135806        58.1182 
 346   0.0000       2.143629        58.3311 
 347   0.0000       2.164252        58.8923 
 348   0.0000       2.166371        58.9500 
 349   0.0000       2.186953        59.5100 
 350   0.0000       2.200049        59.8664 
 351   0.0000       2.205204        60.0066 
 352   0.0000       2.212162        60.1960 
 353   0.0000       2.221088        60.4389 
 354   0.0000       2.229052        60.6556 
 355   0.0000       2.235088        60.8198 
 356   0.0000       2.238722        60.9187 
 357   0.0000       2.255395        61.3724 
 358   0.0000       2.263115        61.5825 
 359   0.0000       2.274093        61.8812 
 360   0.0000       2.283227        62.1298 
 361   0.0000       2.283960        62.1497 
[...]
 19:    220.79   0.001112    5.62  0.001572  ( 0.001036  0.014641  0.036831)
 20:    231.96   0.000570    2.88  0.000767  (-0.009404 -0.017558  0.019246)
 21:    258.28   0.000051    0.26  0.000062  ( 0.002895 -0.007136 -0.001614)
 22:    265.52   0.000015    0.08  0.000018  ( 0.002510  0.000825 -0.003338)
 23:    295.58   0.000501    2.53  0.000529  (-0.020086  0.011191 -0.000665)
 24:    299.50   0.000990    5.01  0.001032  ( 0.013504 -0.027979  0.008174)
 25:    330.45   0.005687   28.74  0.005370  ( 0.031903 -0.063934  0.016273)
 26:    368.24   0.000632    3.19  0.000535  ( 0.008990 -0.021115 -0.002917)
 27:    405.97   0.003897   19.69  0.002995  (-0.026312  0.047801  0.004260)
 28:    420.89   0.000410    2.07  0.000304  (-0.010807  0.012650 -0.005243)
 29:    446.73   0.000055    0.28  0.000038  (-0.005356  0.002624  0.001605)
 30:    453.66   0.001823    9.21  0.001254  (-0.021085  0.026589 -0.010137)
 31:    483.57   0.000156    0.79  0.000101  (-0.003109 -0.007334 -0.006095)
 32:    495.67   0.000539    2.72  0.000339  (-0.001045 -0.002235 -0.018253)
 33:    512.13   0.000640    3.23  0.000390  ( 0.008260 -0.015899  0.008309)
 34:    522.89   0.000975    4.93  0.000582  (-0.000144  0.024114 -0.000564)
 35:    529.21   0.000482    2.44  0.000284  (-0.001978  0.016110 -0.004553)
 36:    555.76   0.000087    0.44  0.000049  (-0.001770  0.000348 -0.006738)
 37:    565.51   0.000011    0.06  0.000006  (-0.000639 -0.001502  0.001912)
 38:    571.45   0.000424    2.14  0.000231  (-0.009750  0.009816 -0.006328)
 39:    583.34   0.000352    1.78  0.000188  (-0.002549 -0.000159  0.013488)
 40:    614.45   0.001751    8.85  0.000889  ( 0.013086 -0.026114  0.006009)
 41:    630.01   0.000022    0.11  0.000011  ( 0.000909 -0.003051 -0.000812)
 42:    679.37   0.000510    2.58  0.000234  (-0.005797  0.011087 -0.008818)
 43:    701.95   0.000575    2.91  0.000256  (-0.010473  0.012018 -0.001267)
 44:    717.52   0.001322    6.68  0.000575  (-0.005253  0.007323 -0.022218)
 45:    751.65   0.001830    9.25  0.000760  ( 0.002089  0.006630  0.026675)
 46:    761.26   0.000804    4.06  0.000330  ( 0.003585 -0.008384 -0.015697)
 47:    781.09   0.000281    1.42  0.000112  ( 0.006221 -0.008513  0.000999)
 48:    814.42   0.000591    2.99  0.000227  (-0.006296 -0.001430  0.013596)
 49:    815.77   0.005916   29.90  0.002263  (-0.021053  0.042164 -0.006498)
 50:    821.43   0.000598    3.02  0.000227  ( 0.014979  0.000397 -0.001648)
 51:    839.17   0.004159   21.02  0.001547  ( 0.007338 -0.009193 -0.037528)
 52:    853.07   0.000170    0.86  0.000062  (-0.004305  0.006331  0.001846)
 53:    867.79   0.004105   20.75  0.001476  (-0.003657  0.005135  0.037901)
 54:    880.56   0.001101    5.56  0.000390  (-0.003867  0.005085 -0.018690)
 55:    886.67   0.006116   30.91  0.002153  ( 0.004950  0.006176  0.045716)
 56:    901.99   0.004927   24.90  0.001704  (-0.030314  0.026961  0.007659)
 57:    941.65   0.000993    5.02  0.000329  ( 0.005621 -0.010235 -0.013885)
 58:    960.23   0.016728   84.54  0.005436  ( 0.045978 -0.049511 -0.029514)
 59:    984.08   0.004860   24.56  0.001541  (-0.010288  0.026188  0.027376)
 60:    989.18   0.002524   12.75  0.000796  (-0.015485  0.022825 -0.005956)
 61:    993.46   0.001306    6.60  0.000410  (-0.006315  0.018781  0.004213)
 62:    999.57   0.001907    9.64  0.000595  (-0.014325  0.019754  0.000181)
 63:   1001.19   0.001852    9.36  0.000577  ( 0.009744 -0.006475  0.020984)
 64:   1010.23   0.000064    0.32  0.000020  (-0.000846  0.002950  0.003228)
 65:   1013.63   0.000071    0.36  0.000022  ( 0.003526 -0.003003  0.000711)
 66:   1041.06   0.000238    1.20  0.000071  ( 0.008275 -0.001643 -0.000390)
 67:   1082.60   0.002309   11.67  0.000666  (-0.022153 -0.000434 -0.013212)
 68:   1108.87   0.043233  218.48  0.012167  (-0.052780  0.096744  0.004665)
 69:   1113.53   0.000989    5.00  0.000277  (-0.012665  0.006852 -0.008361)
 70:   1128.46   0.016079   81.26  0.004447  ( 0.038563 -0.054394  0.000822)
 71:   1131.93   0.001890    9.55  0.000521  ( 0.014690 -0.017467  0.000455)
 72:   1153.49   0.018461   93.29  0.004994  (-0.037728  0.058571 -0.011845)
 73:   1179.03   0.000068    0.34  0.000018  ( 0.003210  0.002751  0.000024)
 74:   1187.36   0.001240    6.27  0.000326  ( 0.012520 -0.012962  0.001048)
 75:   1201.98   0.005563   28.11  0.001444  ( 0.014046 -0.034979  0.004846)
 76:   1211.24   0.002672   13.50  0.000688  ( 0.018849  0.018165 -0.001808)
 77:   1240.84   0.003376   17.06  0.000849  ( 0.007377  0.027800  0.004659)
 78:   1251.97   0.006395   32.32  0.001594  ( 0.011230 -0.037565 -0.007528)
 79:   1264.02   0.047252  238.79  0.011666  (-0.055609  0.091453 -0.014476)
 80:   1267.90   0.017245   87.15  0.004244  (-0.033649  0.055531 -0.005329)
 81:   1276.54   0.005455   27.57  0.001334  ( 0.024192 -0.026984  0.004493)
 82:   1282.70   0.000782    3.95  0.000190  ( 0.012844  0.003988  0.003073)
 83:   1325.58   0.018052   91.23  0.004250  (-0.033978  0.055608  0.001724)
 84:   1330.25   0.003393   17.14  0.000796  (-0.014356  0.024031 -0.003507)
 85:   1341.84   0.000278    1.40  0.000065  (-0.006238 -0.002220  0.004562)
 86:   1370.44   0.000156    0.79  0.000036  (-0.004434  0.003954 -0.000585)
 87:   1383.00   0.009517   48.10  0.002147  (-0.040526  0.020161 -0.009929)
 88:   1394.23   0.043288  218.76  0.009689  ( 0.062214 -0.075781  0.008698)
 89:   1405.26   0.001429    7.22  0.000317  (-0.008038  0.015778 -0.001933)
 90:   1417.89   0.007274   36.76  0.001601  ( 0.027290 -0.029012 -0.003818)
 91:   1425.01   0.017030   86.06  0.003729  (-0.024477  0.055904 -0.002255)
 92:   1434.57   0.011994   60.61  0.002609  (-0.027822  0.042784  0.002132)
 93:   1441.87   0.000977    4.94  0.000211  ( 0.008430 -0.011753  0.001474)
 94:   1451.66   0.001578    7.98  0.000339  (-0.011590 -0.006817  0.012590)
 95:   1455.59   0.003568   18.03  0.000765  (-0.007822  0.022386  0.014233)
 96:   1461.02   0.018060   91.27  0.003857  (-0.035087  0.048395 -0.016860)
 97:   1466.29   0.006627   33.49  0.001410  ( 0.026700 -0.025550  0.006693)
 98:   1484.44   0.008541   43.16  0.001796  ( 0.014978 -0.039569  0.002346)
 99:   1502.29   0.002526   12.76  0.000525  (-0.015918  0.016076 -0.003586)
100:   1507.54   0.007106   35.91  0.001471  ( 0.034540 -0.016535  0.002106)
101:   1534.83   0.001025    5.18  0.000208  ( 0.013218 -0.005807 -0.000072)
102:   1547.31   0.007837   39.61  0.001581  ( 0.015180 -0.036297  0.005716)
103:   1572.27   0.008590   43.41  0.001705  ( 0.028931 -0.029362  0.002398)
104:   1620.07   0.001086    5.49  0.000209  ( 0.005021 -0.013527  0.001010)
105:   1634.63   0.152415  770.24  0.029097  (-0.098090  0.138749 -0.014981)
106:   1654.86   0.003491   17.64  0.000658  (-0.010183 -0.022458  0.007093)
107:   1661.06   0.044886  226.83  0.008433  ( 0.048466 -0.077477  0.009005)
108:   1672.15   0.012392   62.62  0.002313  ( 0.019609 -0.043909  0.000189)
109:   1691.28   0.145626  735.93  0.026870  ( 0.094548 -0.133791  0.005520)
110:   2335.30   0.034369  173.69  0.004593  (-0.042989  0.051847 -0.007516)
111:   2969.96   0.007917   40.01  0.000832  (-0.016218 -0.020761 -0.011740)
112:   2976.47   0.048026  242.70  0.005035  ( 0.048713 -0.046430 -0.022507)
113:   3067.23   0.009292   46.96  0.000945  (-0.003600  0.024909 -0.017662)
114:   3071.62   0.005524   27.92  0.000561  ( 0.008725 -0.009985  0.019632)
115:   3123.74   0.000956    4.83  0.000096  ( 0.003454  0.008434  0.003530)
116:   3125.87   0.005206   26.31  0.000520  (-0.018557  0.012903 -0.002975)
117:   3164.33   0.001205    6.09  0.000119  (-0.009796 -0.003260 -0.003494)
118:   3169.41   0.000177    0.89  0.000017  (-0.001731  0.003707  0.000815)
119:   3172.14   0.000505    2.55  0.000050  ( 0.005998  0.003665 -0.000490)
120:   3172.55   0.002758   13.94  0.000271  (-0.016410  0.001265  0.000596)
121:   3174.17   0.003439   17.38  0.000338  ( 0.017250 -0.006307  0.000897)
122:   3177.71   0.000711    3.59  0.000070  ( 0.005829  0.005943 -0.000705)
123:   3191.64   0.004253   21.50  0.000416  ( 0.005946  0.019286 -0.002930)
124:   3196.80   0.001620    8.19  0.000158  (-0.000495  0.012499 -0.001300)
125:   3197.39   0.001411    7.13  0.000138  (-0.008047 -0.008460  0.001173)
126:   3199.92   0.001921    9.71  0.000187  (-0.006797  0.011359 -0.003475)
127:   3216.14   0.004666   23.58  0.000453  ( 0.020242 -0.006268  0.001923)
128:   3220.02   0.002699   13.64  0.000262  ( 0.015250 -0.005374  0.000356)

* The epsilon (eps) is given for a Dirac delta lineshape.
** The dipole moment derivative (T) already includes vibrational overlap.

The first frequency considered to be a vibration is 6
The total number of vibrations considered is 123


--------------------------
THERMOCHEMISTRY AT 298.15K
--------------------------

Temperature         ... 298.15 K
Pressure            ... 1.00 atm
Total Mass          ... 322.41 AMU

Throughout the following assumptions are being made:
  (1) The electronic state is orbitally nondegenerate
  (2) There are no thermally accessible electronically excited states
  (3) Hindered rotations indicated by low frequency modes are not
      treated as such but are treated as vibrations and this may
      cause some error
  (4) All equations used are the standard statistical mechanics
      equations for an ideal gas
  (5) All vibrations are strictly harmonic

freq.      17.84  E(vib)   ...       0.57 
freq.      26.64  E(vib)   ...       0.56 
freq.      37.31  E(vib)   ...       0.54 
freq.      55.50  E(vib)   ...       0.52 
freq.      57.38  E(vib)   ...       0.51 
freq.      84.12  E(vib)   ...       0.48 
freq.      96.69  E(vib)   ...       0.46 
freq.     126.89  E(vib)   ...       0.43 
freq.     140.26  E(vib)   ...       0.41 
freq.     165.31  E(vib)   ...       0.39 
freq.     177.74  E(vib)   ...       0.37 
freq.     197.30  E(vib)   ...       0.35 
freq.     211.37  E(vib)   ...       0.34 
freq.     220.79  E(vib)   ...       0.33 
freq.     231.96  E(vib)   ...       0.32 
freq.     258.28  E(vib)   ...       0.30 
freq.     265.52  E(vib)   ...       0.29 
freq.     295.58  E(vib)   ...       0.27 
freq.     299.50  E(vib)   ...       0.26 
freq.     330.45  E(vib)   ...       0.24 
freq.     368.24  E(vib)   ...       0.21 
freq.     405.97  E(vib)   ...       0.19 
freq.     420.89  E(vib)   ...       0.18 
freq.     446.73  E(vib)   ...       0.17 
freq.     453.66  E(vib)   ...       0.16 
freq.     483.57  E(vib)   ...       0.15 
freq.     495.67  E(vib)   ...       0.14 
freq.     512.13  E(vib)   ...       0.14 
freq.     522.89  E(vib)   ...       0.13 
freq.     529.21  E(vib)   ...       0.13 
freq.     555.76  E(vib)   ...       0.12 
freq.     565.51  E(vib)   ...       0.11 
freq.     571.45  E(vib)   ...       0.11 
freq.     583.34  E(vib)   ...       0.11 
freq.     614.45  E(vib)   ...       0.10 
freq.     630.01  E(vib)   ...       0.09 
freq.     679.37  E(vib)   ...       0.08 
freq.     701.95  E(vib)   ...       0.07 
freq.     717.52  E(vib)   ...       0.07 
freq.     751.65  E(vib)   ...       0.06 
freq.     761.26  E(vib)   ...       0.06 
freq.     781.09  E(vib)   ...       0.05 
freq.     814.42  E(vib)   ...       0.05 
freq.     815.77  E(vib)   ...       0.05 
freq.     821.43  E(vib)   ...       0.05 
freq.     839.17  E(vib)   ...       0.04 
freq.     853.07  E(vib)   ...       0.04 
freq.     867.79  E(vib)   ...       0.04 
freq.     880.56  E(vib)   ...       0.04 
freq.     886.67  E(vib)   ...       0.04 
freq.     901.99  E(vib)   ...       0.03 
freq.     941.65  E(vib)   ...       0.03 
freq.     960.23  E(vib)   ...       0.03 
freq.     984.08  E(vib)   ...       0.02 
freq.     989.18  E(vib)   ...       0.02 
freq.     993.46  E(vib)   ...       0.02 
freq.     999.57  E(vib)   ...       0.02 
freq.    1001.19  E(vib)   ...       0.02 
freq.    1010.23  E(vib)   ...       0.02 
freq.    1013.63  E(vib)   ...       0.02 
freq.    1041.06  E(vib)   ...       0.02 
freq.    1082.60  E(vib)   ...       0.02 
freq.    1108.87  E(vib)   ...       0.02 
freq.    1113.53  E(vib)   ...       0.01 
freq.    1128.46  E(vib)   ...       0.01 
freq.    1131.93  E(vib)   ...       0.01 
freq.    1153.49  E(vib)   ...       0.01 
freq.    1179.03  E(vib)   ...       0.01 
freq.    1187.36  E(vib)   ...       0.01 
freq.    1201.98  E(vib)   ...       0.01 
freq.    1211.24  E(vib)   ...       0.01 
freq.    1240.84  E(vib)   ...       0.01 
freq.    1251.97  E(vib)   ...       0.01 
freq.    1264.02  E(vib)   ...       0.01 
freq.    1267.90  E(vib)   ...       0.01 
freq.    1276.54  E(vib)   ...       0.01 
freq.    1282.70  E(vib)   ...       0.01 
freq.    1325.58  E(vib)   ...       0.01 
freq.    1330.25  E(vib)   ...       0.01 
freq.    1341.84  E(vib)   ...       0.01 
freq.    1370.44  E(vib)   ...       0.01 
freq.    1383.00  E(vib)   ...       0.01 
freq.    1394.23  E(vib)   ...       0.00 
freq.    1405.26  E(vib)   ...       0.00 
freq.    1417.89  E(vib)   ...       0.00 
freq.    1425.01  E(vib)   ...       0.00 
freq.    1434.57  E(vib)   ...       0.00 
freq.    1441.87  E(vib)   ...       0.00 
freq.    1451.66  E(vib)   ...       0.00 
freq.    1455.59  E(vib)   ...       0.00 
freq.    1461.02  E(vib)   ...       0.00 
freq.    1466.29  E(vib)   ...       0.00 
freq.    1484.44  E(vib)   ...       0.00 
freq.    1502.29  E(vib)   ...       0.00 
freq.    1507.54  E(vib)   ...       0.00 
freq.    1534.83  E(vib)   ...       0.00 
freq.    1547.31  E(vib)   ...       0.00 
freq.    1572.27  E(vib)   ...       0.00 
freq.    1620.07  E(vib)   ...       0.00 
freq.    1634.63  E(vib)   ...       0.00 
freq.    1654.86  E(vib)   ...       0.00 
freq.    1661.06  E(vib)   ...       0.00 
freq.    1672.15  E(vib)   ...       0.00 
freq.    1691.28  E(vib)   ...       0.00 
freq.    2335.30  E(vib)   ...       0.00 
freq.    2969.96  E(vib)   ...       0.00 
freq.    2976.47  E(vib)   ...       0.00 
freq.    3067.23  E(vib)   ...       0.00 
freq.    3071.62  E(vib)   ...       0.00 
freq.    3123.74  E(vib)   ...       0.00 
freq.    3125.87  E(vib)   ...       0.00 
freq.    3164.33  E(vib)   ...       0.00 
freq.    3169.41  E(vib)   ...       0.00 
freq.    3172.14  E(vib)   ...       0.00 
freq.    3172.55  E(vib)   ...       0.00 
freq.    3174.17  E(vib)   ...       0.00 
freq.    3177.71  E(vib)   ...       0.00 
freq.    3191.64  E(vib)   ...       0.00 
freq.    3196.80  E(vib)   ...       0.00 
freq.    3197.39  E(vib)   ...       0.00 
freq.    3199.92  E(vib)   ...       0.00 
freq.    3216.14  E(vib)   ...       0.00 
freq.    3220.02  E(vib)   ...       0.00 

------------
INNER ENERGY
------------

The inner energy is: U= E(el) + E(ZPE) + E(vib) + E(rot) + E(trans)
    E(el)   - is the total energy from the electronic structure calculation
              = E(kin-el) + E(nuc-el) + E(el-el) + E(nuc-nuc)
    E(ZPE)  - the the zero temperature vibrational energy from the frequency calculation
    E(vib)  - the the finite temperature correction to E(ZPE) due to population
              of excited vibrational states
    E(rot)  - is the rotational thermal energy
    E(trans)- is the translational thermal energy

Summary of contributions to the inner energy U:
Electronic energy                ...   -995.44856217 Eh
Zero point energy                ...      0.34549771 Eh     216.80 kcal/mol
Thermal vibrational correction   ...      0.01824592 Eh      11.45 kcal/mol
Thermal rotational correction    ...      0.00141627 Eh       0.89 kcal/mol
Thermal translational correction ...      0.00141627 Eh       0.89 kcal/mol
-----------------------------------------------------------------------
Total thermal energy                   -995.08198600 Eh


Summary of corrections to the electronic energy:
(perhaps to be used in another calculation)
Total thermal correction                  0.02107846 Eh      13.23 kcal/mol
Non-thermal (ZPE) correction              0.34549771 Eh     216.80 kcal/mol
-----------------------------------------------------------------------
Total correction                          0.36657617 Eh     230.03 kcal/mol


--------
ENTHALPY
--------

The enthalpy is H = U + kB*T
                kB is Boltzmann's constant
Total free energy                 ...   -995.08198600 Eh 
Thermal Enthalpy correction       ...      0.00094421 Eh       0.59 kcal/mol
-----------------------------------------------------------------------
Total Enthalpy                    ...   -995.08104179 Eh


Note: Only C1 symmetry has been detected, increase convergence thresholds 
      if your molecule has a higher symmetry. Symmetry factor of 1.0 is   
      used for the rotational entropy correction. 
 

Note: Rotational entropy computed according to Herzberg 
Infrared and Raman Spectra, Chapter V,1, Van Nostrand Reinhold, 1945 
Point Group:  C1, Symmetry Number:   1  
Rotational constants in cm-1:     0.023845     0.002887     0.002595 

Vibrational entropy computed according to the QRRHO of S. Grimme
Chem.Eur.J. 2012 18 9955


-------
ENTROPY
-------

The entropy contributions are T*S = T*(S(el)+S(vib)+S(rot)+S(trans))
     S(el)   - electronic entropy
     S(vib)  - vibrational entropy
     S(rot)  - rotational entropy
     S(trans)- translational entropy
The entropies will be listed as multiplied by the temperature to get
units of energy

Electronic entropy                ...      0.00000000 Eh      0.00 kcal/mol
Vibrational entropy               ...      0.03222341 Eh     20.22 kcal/mol
Rotational entropy                ...      0.01684614 Eh     10.57 kcal/mol
Translational entropy             ...      0.02052921 Eh     12.88 kcal/mol
-----------------------------------------------------------------------
Final entropy term                ...      0.06959876 Eh     43.67 kcal/mol

In case the symmetry of your molecule has not been determined correctly
or in case you have a reason to use a different symmetry number we print 
out the resulting rotational entropy values for sn=1,12 :
 --------------------------------------------------------
|  sn= 1 | S(rot)=       0.01684614 Eh     10.57 kcal/mol|
|  sn= 2 | S(rot)=       0.01619168 Eh     10.16 kcal/mol|
|  sn= 3 | S(rot)=       0.01580885 Eh      9.92 kcal/mol|
|  sn= 4 | S(rot)=       0.01553723 Eh      9.75 kcal/mol|
|  sn= 5 | S(rot)=       0.01532654 Eh      9.62 kcal/mol|
|  sn= 6 | S(rot)=       0.01515439 Eh      9.51 kcal/mol|
|  sn= 7 | S(rot)=       0.01500885 Eh      9.42 kcal/mol|
|  sn= 8 | S(rot)=       0.01488277 Eh      9.34 kcal/mol|
|  sn= 9 | S(rot)=       0.01477156 Eh      9.27 kcal/mol|
|  sn=10 | S(rot)=       0.01467208 Eh      9.21 kcal/mol|
|  sn=11 | S(rot)=       0.01458209 Eh      9.15 kcal/mol|
|  sn=12 | S(rot)=       0.01449994 Eh      9.10 kcal/mol|
 --------------------------------------------------------


-------------------
GIBBS FREE ENERGY
-------------------

The Gibbs free energy is G = H - T*S

Total enthalpy                    ...   -995.08104179 Eh 
Total entropy correction          ...     -0.06959876 Eh    -43.67 kcal/mol
-----------------------------------------------------------------------
Final Gibbs free energy         ...   -995.15064055 Eh

For completeness - the Gibbs free energy minus the electronic energy
G-E(el)                           ...      0.29792162 Eh    186.95 kcal/mol


Timings for individual modules:

Sum of individual times         ...     3148.103 sec (=  52.468 min)
GTO integral calculation        ...       27.216 sec (=   0.454 min)   0.9 %
SCF iterations                  ...     1864.172 sec (=  31.070 min)  59.2 %
SCF Gradient evaluation         ...      507.528 sec (=   8.459 min)  16.1 %
Geometry relaxation             ...        4.535 sec (=   0.076 min)   0.1 %
Analytical frequency calculation...      744.652 sec (=  12.411 min)  23.7 %
                             ****ORCA TERMINATED NORMALLY****
TOTAL RUN TIME: 0 days 0 hours 53 minutes 17 seconds 785 msec
