37
* (null), Energy   -1000.0000000
C    -7.228152    3.035781   -0.284025   -0.000009    0.000012    0.000191
C    -5.971927    3.680616   -0.284341   -0.000002    0.000001    0.000008
C    -4.785312    2.977863   -0.183536   -0.000011    0.000021    0.000240
C    -4.786504    1.571762   -0.075393   -0.000030    0.000061    0.000742
C    -3.572404    0.822794    0.029079    0.000036   -0.000067   -0.000978
C    -3.582086   -0.539581    0.133537    0.000064   -0.000110   -0.001575
C    -4.803261   -1.295231    0.145087    0.000008   -0.000004   -0.000095
C    -4.823748   -2.726413    0.254315    0.000087   -0.000184   -0.002500
C    -6.087506   -3.363616    0.256531    0.000535   -0.001099   -0.014204
C    -7.274167   -2.659273    0.158289    0.000211   -0.000435   -0.005598
C    -7.282613   -1.254923    0.049244   -0.000027    0.000065    0.000894
C    -8.495314   -0.506593   -0.053696   -0.000021    0.000045    0.000619
C    -8.492493    0.855844   -0.160048   -0.000015    0.000034    0.000502
C    -7.267391    1.606977   -0.173555   -0.000020    0.000045    0.000589
C    -6.032997    0.872033   -0.069212   -0.000033    0.000074    0.000914
C    -6.035662   -0.560589    0.041887   -0.000033    0.000078    0.000955
C    -8.457036    3.814744   -0.394531   -0.000001   -0.000006   -0.000040
C    -3.590994   -3.498456    0.359130   -0.001639    0.003431    0.044633
C    -8.569520    5.163749   -0.507918    0.000006   -0.000008   -0.000066
C    -3.495758   -4.851328    0.467623   -0.002664    0.005613    0.072402
C    -9.833447    5.814771   -0.609695    0.000001   -0.000000   -0.000032
N    -2.336970   -5.564149    0.564872    0.010208   -0.021949   -0.281321
N   -10.857091    6.362125   -0.693801   -0.000007    0.000020    0.000223
H    -5.928082    4.768321   -0.365935    0.000025   -0.000056   -0.000736
H    -3.830760    3.510857   -0.186848    0.000023   -0.000045   -0.000649
H    -2.623272    1.365831    0.023882    0.000201   -0.000399   -0.005312
H    -2.626489   -1.057480    0.210235    0.000424   -0.000800   -0.010749
H    -6.141069   -4.451017    0.338082    0.001395   -0.002821   -0.036621
H    -8.226842   -3.196739    0.164720    0.000444   -0.000922   -0.011882
H    -9.444689   -1.049862   -0.045708    0.000025   -0.000053   -0.000631
H    -9.449556    1.371022   -0.234800    0.000010   -0.000024   -0.000229
H    -9.396789    3.260588   -0.386389    0.000004   -0.000016   -0.000211
H    -2.646987   -2.949533    0.350676   -0.001936    0.004078    0.053164
H    -7.696842    5.822568   -0.526749    0.000014   -0.000023   -0.000257
H    -4.391530   -5.479051    0.484063   -0.002885    0.006072    0.078295
H    -2.349040   -6.569778    0.643108   -0.062004    0.134314    1.716897
H    -1.435884   -5.104632    0.561821   -0.035104    0.075257    0.962059
37
* Frequency(6) -237.1972
C    -7.228153    3.035782   -0.284003   -0.000009    0.000012    0.000191
C    -5.971927    3.680616   -0.284340   -0.000002    0.000001    0.000008
C    -4.785313    2.977865   -0.183509   -0.000011    0.000021    0.000240
C    -4.786507    1.571769   -0.075308   -0.000030    0.000061    0.000742
C    -3.572400    0.822786    0.028967    0.000036   -0.000067   -0.000978
C    -3.582079   -0.539593    0.133358    0.000064   -0.000110   -0.001575
C    -4.803260   -1.295231    0.145077    0.000008   -0.000004   -0.000095
C    -4.823738   -2.726434    0.254031    0.000087   -0.000184   -0.002500
C    -6.087445   -3.363741    0.254916    0.000535   -0.001099   -0.014204
C    -7.274143   -2.659323    0.157652    0.000211   -0.000435   -0.005598
C    -7.282616   -1.254916    0.049346   -0.000027    0.000065    0.000894
C    -8.495316   -0.506588   -0.053625   -0.000021    0.000045    0.000619
C    -8.492495    0.855848   -0.159991   -0.000015    0.000034    0.000502
C    -7.267393    1.606982   -0.173488   -0.000020    0.000045    0.000589
C    -6.033001    0.872041   -0.069108   -0.000033    0.000074    0.000914
C    -6.035665   -0.560580    0.041995   -0.000033    0.000078    0.000955
C    -8.457036    3.814743   -0.394536   -0.000001   -0.000006   -0.000040
C    -3.591180   -3.498066    0.364203   -0.001639    0.003431    0.044633
C    -8.569520    5.163748   -0.507925    0.000006   -0.000008   -0.000066
C    -3.496061   -4.850690    0.475851   -0.002664    0.005613    0.072402
C    -9.833447    5.814771   -0.609699    0.000001   -0.000000   -0.000032
N    -2.335810   -5.566644    0.532901    0.010208   -0.021949   -0.281321
N   -10.857092    6.362127   -0.693775   -0.000007    0.000020    0.000223
H    -5.928079    4.768314   -0.366018    0.000025   -0.000056   -0.000736
H    -3.830758    3.510851   -0.186921    0.000023   -0.000045   -0.000649
H    -2.623249    1.365785    0.023278    0.000201   -0.000399   -0.005312
H    -2.626441   -1.057571    0.209013    0.000424   -0.000800   -0.010749
H    -6.140910   -4.451338    0.333921    0.001395   -0.002821   -0.036621
H    -8.226791   -3.196844    0.163370    0.000444   -0.000922   -0.011882
H    -9.444686   -1.049868   -0.045780    0.000025   -0.000053   -0.000631
H    -9.449555    1.371019   -0.234826    0.000010   -0.000024   -0.000229
H    -9.396789    3.260586   -0.386413    0.000004   -0.000016   -0.000211
H    -2.647207   -2.949069    0.356718   -0.001936    0.004078    0.053164
H    -7.696841    5.822566   -0.526778    0.000014   -0.000023   -0.000257
H    -4.391858   -5.478361    0.492960   -0.002885    0.006072    0.078295
H    -2.356087   -6.554514    0.838224   -0.062004    0.134314    1.716897
H    -1.439874   -5.096080    0.671154   -0.035104    0.075257    0.962059
37
* Frequency(6) -237.1972
C    -7.228154    3.035784   -0.283984   -0.000009    0.000012    0.000191
C    -5.971928    3.680617   -0.284339   -0.000002    0.000001    0.000008
C    -4.785314    2.977868   -0.183485   -0.000011    0.000021    0.000240
C    -4.786510    1.571775   -0.075233   -0.000030    0.000061    0.000742
C    -3.572397    0.822779    0.028868    0.000036   -0.000067   -0.000978
C    -3.582072   -0.539604    0.133199    0.000064   -0.000110   -0.001575
C    -4.803259   -1.295231    0.145067    0.000008   -0.000004   -0.000095
C    -4.823729   -2.726452    0.253778    0.000087   -0.000184   -0.002500
C    -6.087391   -3.363852    0.253477    0.000535   -0.001099   -0.014204
C    -7.274122   -2.659367    0.157085    0.000211   -0.000435   -0.005598
C    -7.282619   -1.254909    0.049437   -0.000027    0.000065    0.000894
C    -8.495318   -0.506583   -0.053563   -0.000021    0.000045    0.000619
C    -8.492496    0.855851   -0.159941   -0.000015    0.000034    0.000502
C    -7.267396    1.606987   -0.173428   -0.000020    0.000045    0.000589
C    -6.033004    0.872049   -0.069015   -0.000033    0.000074    0.000914
C    -6.035669   -0.560572    0.042092   -0.000033    0.000078    0.000955
C    -8.457037    3.814742   -0.394540   -0.000001   -0.000006   -0.000040
C    -3.591346   -3.497718    0.368725   -0.001639    0.003431    0.044633
C    -8.569519    5.163747   -0.507932    0.000006   -0.000008   -0.000066
C    -3.496331   -4.850121    0.483187   -0.002664    0.005613    0.072402
C    -9.833447    5.814771   -0.609702    0.000001   -0.000000   -0.000032
N    -2.334776   -5.568868    0.504395    0.010208   -0.021949   -0.281321
N   -10.857093    6.362129   -0.693753   -0.000007    0.000020    0.000223
H    -5.928077    4.768309   -0.366093    0.000025   -0.000056   -0.000736
H    -3.830755    3.510847   -0.186987    0.000023   -0.000045   -0.000649
H    -2.623229    1.365745    0.022740    0.000201   -0.000399   -0.005312
H    -2.626398   -1.057652    0.207924    0.000424   -0.000800   -0.010749
H    -6.140769   -4.451624    0.330210    0.001395   -0.002821   -0.036621
H    -8.226746   -3.196938    0.162166    0.000444   -0.000922   -0.011882
H    -9.444684   -1.049873   -0.045844    0.000025   -0.000053   -0.000631
H    -9.449554    1.371017   -0.234849    0.000010   -0.000024   -0.000229
H    -9.396788    3.260584   -0.386434    0.000004   -0.000016   -0.000211
H    -2.647403   -2.948656    0.362105   -0.001936    0.004078    0.053164
H    -7.696840    5.822563   -0.526804    0.000014   -0.000023   -0.000257
H    -4.392150   -5.477745    0.500894   -0.002885    0.006072    0.078295
H    -2.362370   -6.540904    1.012197   -0.062004    0.134314    1.716897
H    -1.443431   -5.088454    0.768640   -0.035104    0.075257    0.962059
37
* Frequency(6) -237.1972
C    -7.228155    3.035784   -0.283969   -0.000009    0.000012    0.000191
C    -5.971928    3.680617   -0.284339   -0.000002    0.000001    0.000008
C    -4.785315    2.977869   -0.183466   -0.000011    0.000021    0.000240
C    -4.786513    1.571780   -0.075175   -0.000030    0.000061    0.000742
C    -3.572394    0.822774    0.028792    0.000036   -0.000067   -0.000978
C    -3.582067   -0.539613    0.133076    0.000064   -0.000110   -0.001575
C    -4.803259   -1.295232    0.145060    0.000008   -0.000004   -0.000095
C    -4.823722   -2.726467    0.253583    0.000087   -0.000184   -0.002500
C    -6.087349   -3.363938    0.252369    0.000535   -0.001099   -0.014204
C    -7.274106   -2.659401    0.156648    0.000211   -0.000435   -0.005598
C    -7.282621   -1.254904    0.049507   -0.000027    0.000065    0.000894
C    -8.495320   -0.506580   -0.053514   -0.000021    0.000045    0.000619
C    -8.492497    0.855854   -0.159901   -0.000015    0.000034    0.000502
C    -7.267397    1.606990   -0.173382   -0.000020    0.000045    0.000589
C    -6.033007    0.872055   -0.068944   -0.000033    0.000074    0.000914
C    -6.035671   -0.560566    0.042167   -0.000033    0.000078    0.000955
C    -8.457037    3.814742   -0.394543   -0.000001   -0.000006   -0.000040
C    -3.591474   -3.497450    0.372208   -0.001639    0.003431    0.044633
C    -8.569519    5.163746   -0.507937    0.000006   -0.000008   -0.000066
C    -3.496539   -4.849683    0.488837   -0.002664    0.005613    0.072402
C    -9.833447    5.814771   -0.609705    0.000001   -0.000000   -0.000032
N    -2.333980   -5.570581    0.482442    0.010208   -0.021949   -0.281321
N   -10.857093    6.362131   -0.693735   -0.000007    0.000020    0.000223
H    -5.928075    4.768304   -0.366150    0.000025   -0.000056   -0.000736
H    -3.830753    3.510843   -0.187038    0.000023   -0.000045   -0.000649
H    -2.623213    1.365714    0.022325    0.000201   -0.000399   -0.005312
H    -2.626365   -1.057715    0.207085    0.000424   -0.000800   -0.010749
H    -6.140660   -4.451844    0.327352    0.001395   -0.002821   -0.036621
H    -8.226712   -3.197010    0.161239    0.000444   -0.000922   -0.011882
H    -9.444682   -1.049877   -0.045893    0.000025   -0.000053   -0.000631
H    -9.449553    1.371015   -0.234867    0.000010   -0.000024   -0.000229
H    -9.396788    3.260583   -0.386451    0.000004   -0.000016   -0.000211
H    -2.647554   -2.948338    0.366254   -0.001936    0.004078    0.053164
H    -7.696838    5.822561   -0.526825    0.000014   -0.000023   -0.000257
H    -4.392375   -5.477271    0.507004   -0.002885    0.006072    0.078295
H    -2.367208   -6.530423    1.146173   -0.062004    0.134314    1.716897
H    -1.446170   -5.082581    0.843713   -0.035104    0.075257    0.962059
37
* Frequency(6) -237.1972
C    -7.228155    3.035785   -0.283960   -0.000009    0.000012    0.000191
C    -5.971928    3.680617   -0.284338   -0.000002    0.000001    0.000008
C    -4.785316    2.977870   -0.183455   -0.000011    0.000021    0.000240
C    -4.786514    1.571783   -0.075141   -0.000030    0.000061    0.000742
C    -3.572392    0.822771    0.028747    0.000036   -0.000067   -0.000978
C    -3.582064   -0.539618    0.133003    0.000064   -0.000110   -0.001575
C    -4.803258   -1.295232    0.145055    0.000008   -0.000004   -0.000095
C    -4.823718   -2.726475    0.253467    0.000087   -0.000184   -0.002500
C    -6.087325   -3.363989    0.251711    0.000535   -0.001099   -0.014204
C    -7.274096   -2.659421    0.156389    0.000211   -0.000435   -0.005598
C    -7.282622   -1.254901    0.049548   -0.000027    0.000065    0.000894
C    -8.495321   -0.506578   -0.053486   -0.000021    0.000045    0.000619
C    -8.492498    0.855855   -0.159878   -0.000015    0.000034    0.000502
C    -7.267398    1.606992   -0.173355   -0.000020    0.000045    0.000589
C    -6.033008    0.872058   -0.068902   -0.000033    0.000074    0.000914
C    -6.035673   -0.560563    0.042211   -0.000033    0.000078    0.000955
C    -8.457037    3.814742   -0.394545   -0.000001   -0.000006   -0.000040
C    -3.591550   -3.497291    0.374274   -0.001639    0.003431    0.044633
C    -8.569518    5.163746   -0.507940    0.000006   -0.000008   -0.000066
C    -3.496662   -4.849423    0.492188   -0.002664    0.005613    0.072402
C    -9.833447    5.814771   -0.609706    0.000001   -0.000000   -0.000032
N    -2.333507   -5.571596    0.469422    0.010208   -0.021949   -0.281321
N   -10.857094    6.362132   -0.693725   -0.000007    0.000020    0.000223
H    -5.928074    4.768302   -0.366184    0.000025   -0.000056   -0.000736
H    -3.830752    3.510841   -0.187068    0.000023   -0.000045   -0.000649
H    -2.623204    1.365695    0.022079    0.000201   -0.000399   -0.005312
H    -2.626345   -1.057752    0.206588    0.000424   -0.000800   -0.010749
H    -6.140596   -4.451974    0.325657    0.001395   -0.002821   -0.036621
H    -8.226691   -3.197052    0.160689    0.000444   -0.000922   -0.011882
H    -9.444681   -1.049880   -0.045922    0.000025   -0.000053   -0.000631
H    -9.449552    1.371014   -0.234877    0.000010   -0.000024   -0.000229
H    -9.396788    3.260582   -0.386461    0.000004   -0.000016   -0.000211
H    -2.647644   -2.948149    0.368714   -0.001936    0.004078    0.053164
H    -7.696838    5.822560   -0.526836    0.000014   -0.000023   -0.000257
H    -4.392509   -5.476990    0.510627   -0.002885    0.006072    0.078295
H    -2.370078   -6.524207    1.225634   -0.062004    0.134314    1.716897
H    -1.447795   -5.079098    0.888239   -0.035104    0.075257    0.962059
37
* Frequency(6) -237.1972
C    -7.228155    3.035785   -0.283958   -0.000009    0.000012    0.000191
C    -5.971928    3.680617   -0.284338   -0.000002    0.000001    0.000008
C    -4.785316    2.977870   -0.183452   -0.000011    0.000021    0.000240
C    -4.786514    1.571784   -0.075134   -0.000030    0.000061    0.000742
C    -3.572392    0.822770    0.028737    0.000036   -0.000067   -0.000978
C    -3.582064   -0.539619    0.132988    0.000064   -0.000110   -0.001575
C    -4.803258   -1.295232    0.145054    0.000008   -0.000004   -0.000095
C    -4.823717   -2.726477    0.253443    0.000087   -0.000184   -0.002500
C    -6.087319   -3.364000    0.251576    0.000535   -0.001099   -0.014204
C    -7.274094   -2.659425    0.156336    0.000211   -0.000435   -0.005598
C    -7.282622   -1.254900    0.049556   -0.000027    0.000065    0.000894
C    -8.495321   -0.506577   -0.053480   -0.000021    0.000045    0.000619
C    -8.492498    0.855856   -0.159873   -0.000015    0.000034    0.000502
C    -7.267398    1.606993   -0.173349   -0.000020    0.000045    0.000589
C    -6.033008    0.872059   -0.068893   -0.000033    0.000074    0.000914
C    -6.035673   -0.560562    0.042220   -0.000033    0.000078    0.000955
C    -8.457037    3.814742   -0.394546   -0.000001   -0.000006   -0.000040
C    -3.591565   -3.497259    0.374699   -0.001639    0.003431    0.044633
C    -8.569518    5.163746   -0.507941    0.000006   -0.000008   -0.000066
C    -3.496687   -4.849370    0.492877   -0.002664    0.005613    0.072402
C    -9.833447    5.814771   -0.609706    0.000001   -0.000000   -0.000032
N    -2.333410   -5.571805    0.466746    0.010208   -0.021949   -0.281321
N   -10.857094    6.362132   -0.693723   -0.000007    0.000020    0.000223
H    -5.928073    4.768301   -0.366191    0.000025   -0.000056   -0.000736
H    -3.830752    3.510841   -0.187074    0.000023   -0.000045   -0.000649
H    -2.623202    1.365691    0.022029    0.000201   -0.000399   -0.005312
H    -2.626341   -1.057759    0.206485    0.000424   -0.000800   -0.010749
H    -6.140582   -4.452001    0.325309    0.001395   -0.002821   -0.036621
H    -8.226687   -3.197061    0.160576    0.000444   -0.000922   -0.011882
H    -9.444680   -1.049880   -0.045928    0.000025   -0.000053   -0.000631
H    -9.449552    1.371014   -0.234879    0.000010   -0.000024   -0.000229
H    -9.396788    3.260582   -0.386463    0.000004   -0.000016   -0.000211
H    -2.647662   -2.948110    0.369220   -0.001936    0.004078    0.053164
H    -7.696838    5.822560   -0.526839    0.000014   -0.000023   -0.000257
H    -4.392536   -5.476933    0.511372   -0.002885    0.006072    0.078295
H    -2.370668   -6.522929    1.241969   -0.062004    0.134314    1.716897
H    -1.448129   -5.078382    0.897392   -0.035104    0.075257    0.962059
37
* Frequency(6) -237.1972
C    -7.228155    3.035785   -0.283964   -0.000009    0.000012    0.000191
C    -5.971928    3.680617   -0.284339   -0.000002    0.000001    0.000008
C    -4.785315    2.977870   -0.183459   -0.000011    0.000021    0.000240
C    -4.786513    1.571782   -0.075155   -0.000030    0.000061    0.000742
C    -3.572393    0.822772    0.028765    0.000036   -0.000067   -0.000978
C    -3.582066   -0.539616    0.133032    0.000064   -0.000110   -0.001575
C    -4.803258   -1.295232    0.145057    0.000008   -0.000004   -0.000095
C    -4.823720   -2.726472    0.253514    0.000087   -0.000184   -0.002500
C    -6.087335   -3.363968    0.251978    0.000535   -0.001099   -0.014204
C    -7.274100   -2.659413    0.156494    0.000211   -0.000435   -0.005598
C    -7.282622   -1.254902    0.049531   -0.000027    0.000065    0.000894
C    -8.495320   -0.506579   -0.053497   -0.000021    0.000045    0.000619
C    -8.492498    0.855855   -0.159888   -0.000015    0.000034    0.000502
C    -7.267398    1.606991   -0.173366   -0.000020    0.000045    0.000589
C    -6.033007    0.872057   -0.068919   -0.000033    0.000074    0.000914
C    -6.035672   -0.560564    0.042193   -0.000033    0.000078    0.000955
C    -8.457037    3.814742   -0.394544   -0.000001   -0.000006   -0.000040
C    -3.591519   -3.497356    0.373436   -0.001639    0.003431    0.044633
C    -8.569518    5.163746   -0.507939    0.000006   -0.000008   -0.000066
C    -3.496612   -4.849529    0.490829   -0.002664    0.005613    0.072402
C    -9.833447    5.814771   -0.609706    0.000001   -0.000000   -0.000032
N    -2.333699   -5.571184    0.474703    0.010208   -0.021949   -0.281321
N   -10.857094    6.362131   -0.693729   -0.000007    0.000020    0.000223
H    -5.928074    4.768303   -0.366170    0.000025   -0.000056   -0.000736
H    -3.830753    3.510842   -0.187055    0.000023   -0.000045   -0.000649
H    -2.623208    1.365703    0.022179    0.000201   -0.000399   -0.005312
H    -2.626353   -1.057737    0.206789    0.000424   -0.000800   -0.010749
H    -6.140622   -4.451921    0.326344    0.001395   -0.002821   -0.036621
H    -8.226699   -3.197035    0.160912    0.000444   -0.000922   -0.011882
H    -9.444681   -1.049879   -0.045910    0.000025   -0.000053   -0.000631
H    -9.449553    1.371014   -0.234873    0.000010   -0.000024   -0.000229
H    -9.396788    3.260583   -0.386457    0.000004   -0.000016   -0.000211
H    -2.647607   -2.948226    0.367716   -0.001936    0.004078    0.053164
H    -7.696838    5.822561   -0.526832    0.000014   -0.000023   -0.000257
H    -4.392455   -5.477104    0.509158   -0.002885    0.006072    0.078295
H    -2.368914   -6.526728    1.193409   -0.062004    0.134314    1.716897
H    -1.447136   -5.080511    0.870181   -0.035104    0.075257    0.962059
37
* Frequency(6) -237.1972
C    -7.228154    3.035784   -0.283976   -0.000009    0.000012    0.000191
C    -5.971928    3.680617   -0.284339   -0.000002    0.000001    0.000008
C    -4.785315    2.977868   -0.183474   -0.000011    0.000021    0.000240
C    -4.786511    1.571778   -0.075202   -0.000030    0.000061    0.000742
C    -3.572395    0.822777    0.028827    0.000036   -0.000067   -0.000978
C    -3.582070   -0.539609    0.133132    0.000064   -0.000110   -0.001575
C    -4.803259   -1.295231    0.145063    0.000008   -0.000004   -0.000095
C    -4.823725   -2.726460    0.253671    0.000087   -0.000184   -0.002500
C    -6.087368   -3.363899    0.252873    0.000535   -0.001099   -0.014204
C    -7.274113   -2.659385    0.156847    0.000211   -0.000435   -0.005598
C    -7.282620   -1.254906    0.049475   -0.000027    0.000065    0.000894
C    -8.495319   -0.506581   -0.053536   -0.000021    0.000045    0.000619
C    -8.492497    0.855853   -0.159919   -0.000015    0.000034    0.000502
C    -7.267396    1.606988   -0.173403   -0.000020    0.000045    0.000589
C    -6.033005    0.872052   -0.068976   -0.000033    0.000074    0.000914
C    -6.035670   -0.560569    0.042133   -0.000033    0.000078    0.000955
C    -8.457037    3.814742   -0.394542   -0.000001   -0.000006   -0.000040
C    -3.591416   -3.497572    0.370623   -0.001639    0.003431    0.044633
C    -8.569519    5.163747   -0.507935    0.000006   -0.000008   -0.000066
C    -3.496444   -4.849882    0.486266   -0.002664    0.005613    0.072402
C    -9.833447    5.814771   -0.609704    0.000001   -0.000000   -0.000032
N    -2.334342   -5.569801    0.492431    0.010208   -0.021949   -0.281321
N   -10.857093    6.362130   -0.693743   -0.000007    0.000020    0.000223
H    -5.928076    4.768306   -0.366124    0.000025   -0.000056   -0.000736
H    -3.830754    3.510845   -0.187015    0.000023   -0.000045   -0.000649
H    -2.623221    1.365728    0.022514    0.000201   -0.000399   -0.005312
H    -2.626380   -1.057686    0.207467    0.000424   -0.000800   -0.010749
H    -6.140710   -4.451744    0.328652    0.001395   -0.002821   -0.036621
H    -8.226727   -3.196977    0.161661    0.000444   -0.000922   -0.011882
H    -9.444683   -1.049875   -0.045871    0.000025   -0.000053   -0.000631
H    -9.449553    1.371016   -0.234859    0.000010   -0.000024   -0.000229
H    -9.396788    3.260584   -0.386443    0.000004   -0.000016   -0.000211
H    -2.647486   -2.948482    0.364366   -0.001936    0.004078    0.053164
H    -7.696839    5.822562   -0.526815    0.000014   -0.000023   -0.000257
H    -4.392273   -5.477487    0.504224   -0.002885    0.006072    0.078295
H    -2.365007   -6.535192    1.085214   -0.062004    0.134314    1.716897
H    -1.444924   -5.085253    0.809555   -0.035104    0.075257    0.962059
37
* Frequency(6) -237.1972
C    -7.228154    3.035783   -0.283993   -0.000009    0.000012    0.000191
C    -5.971928    3.680616   -0.284340   -0.000002    0.000001    0.000008
C    -4.785314    2.977867   -0.183496   -0.000011    0.000021    0.000240
C    -4.786509    1.571772   -0.075269   -0.000030    0.000061    0.000742
C    -3.572398    0.822783    0.028916    0.000036   -0.000067   -0.000978
C    -3.582076   -0.539599    0.133275    0.000064   -0.000110   -0.001575
C    -4.803260   -1.295231    0.145072    0.000008   -0.000004   -0.000095
C    -4.823733   -2.726443    0.253899    0.000087   -0.000184   -0.002500
C    -6.087417   -3.363799    0.254164    0.000535   -0.001099   -0.014204
C    -7.274132   -2.659346    0.157356    0.000211   -0.000435   -0.005598
C    -7.282618   -1.254912    0.049393   -0.000027    0.000065    0.000894
C    -8.495317   -0.506585   -0.053593   -0.000021    0.000045    0.000619
C    -8.492495    0.855850   -0.159965   -0.000015    0.000034    0.000502
C    -7.267395    1.606984   -0.173457   -0.000020    0.000045    0.000589
C    -6.033002    0.872045   -0.069060   -0.000033    0.000074    0.000914
C    -6.035667   -0.560576    0.042046   -0.000033    0.000078    0.000955
C    -8.457036    3.814743   -0.394538   -0.000001   -0.000006   -0.000040
C    -3.591267   -3.497884    0.366565   -0.001639    0.003431    0.044633
C    -8.569519    5.163747   -0.507929    0.000006   -0.000008   -0.000066
C    -3.496202   -4.850393    0.479683   -0.002664    0.005613    0.072402
C    -9.833447    5.814771   -0.609701    0.000001   -0.000000   -0.000032
N    -2.335270   -5.567806    0.518009    0.010208   -0.021949   -0.281321
N   -10.857093    6.362128   -0.693763   -0.000007    0.000020    0.000223
H    -5.928078    4.768311   -0.366057    0.000025   -0.000056   -0.000736
H    -3.830756    3.510849   -0.186956    0.000023   -0.000045   -0.000649
H    -2.623239    1.365764    0.022997    0.000201   -0.000399   -0.005312
H    -2.626418   -1.057614    0.208444    0.000424   -0.000800   -0.010749
H    -6.140837   -4.451487    0.331982    0.001395   -0.002821   -0.036621
H    -8.226768   -3.196893    0.162741    0.000444   -0.000922   -0.011882
H    -9.444685   -1.049870   -0.045813    0.000025   -0.000053   -0.000631
H    -9.449554    1.371018   -0.234838    0.000010   -0.000024   -0.000229
H    -9.396788    3.260585   -0.386424    0.000004   -0.000016   -0.000211
H    -2.647310   -2.948853    0.359532   -0.001936    0.004078    0.053164
H    -7.696840    5.822564   -0.526792    0.000014   -0.000023   -0.000257
H    -4.392011   -5.478039    0.497105   -0.002885    0.006072    0.078295
H    -2.359369   -6.547404    0.929111   -0.062004    0.134314    1.716897
H    -1.441732   -5.092096    0.722083   -0.035104    0.075257    0.962059
37
* Frequency(6) -237.1972
C    -7.228153    3.035782   -0.284014   -0.000009    0.000012    0.000191
C    -5.971927    3.680616   -0.284341   -0.000002    0.000001    0.000008
C    -4.785313    2.977864   -0.183522   -0.000011    0.000021    0.000240
C    -4.786505    1.571766   -0.075350   -0.000030    0.000061    0.000742
C    -3.572402    0.822790    0.029022    0.000036   -0.000067   -0.000978
C    -3.582082   -0.539587    0.133446    0.000064   -0.000110   -0.001575
C    -4.803261   -1.295231    0.145082    0.000008   -0.000004   -0.000095
C    -4.823743   -2.726423    0.254171    0.000087   -0.000184   -0.002500
C    -6.087475   -3.363680    0.255712    0.000535   -0.001099   -0.014204
C    -7.274155   -2.659298    0.157966    0.000211   -0.000435   -0.005598
C    -7.282615   -1.254919    0.049296   -0.000027    0.000065    0.000894
C    -8.495315   -0.506590   -0.053660   -0.000021    0.000045    0.000619
C    -8.492494    0.855846   -0.160019   -0.000015    0.000034    0.000502
C    -7.267392    1.606979   -0.173521   -0.000020    0.000045    0.000589
C    -6.032999    0.872037   -0.069159   -0.000033    0.000074    0.000914
C    -6.035664   -0.560585    0.041942   -0.000033    0.000078    0.000955
C    -8.457036    3.814743   -0.394534   -0.000001   -0.000006   -0.000040
C    -3.591088   -3.498258    0.361702   -0.001639    0.003431    0.044633
C    -8.569520    5.163748   -0.507922    0.000006   -0.000008   -0.000066
C    -3.495912   -4.851004    0.471793   -0.002664    0.005613    0.072402
C    -9.833447    5.814771   -0.609697    0.000001   -0.000000   -0.000032
N    -2.336382   -5.565414    0.548665    0.010208   -0.021949   -0.281321
N   -10.857092    6.362126   -0.693788   -0.000007    0.000020    0.000223
H    -5.928081    4.768318   -0.365977    0.000025   -0.000056   -0.000736
H    -3.830759    3.510854   -0.186885    0.000023   -0.000045   -0.000649
H    -2.623261    1.365808    0.023576    0.000201   -0.000399   -0.005312
H    -2.626465   -1.057526    0.209615    0.000424   -0.000800   -0.010749
H    -6.140989   -4.451180    0.335973    0.001395   -0.002821   -0.036621
H    -8.226816   -3.196792    0.164036    0.000444   -0.000922   -0.011882
H    -9.444688   -1.049865   -0.045744    0.000025   -0.000053   -0.000631
H    -9.449555    1.371021   -0.234813    0.000010   -0.000024   -0.000229
H    -9.396789    3.260587   -0.386401    0.000004   -0.000016   -0.000211
H    -2.647099   -2.949298    0.353739   -0.001936    0.004078    0.053164
H    -7.696842    5.822567   -0.526764    0.000014   -0.000023   -0.000257
H    -4.391696   -5.478701    0.488573   -0.002885    0.006072    0.078295
H    -2.352612   -6.562040    0.742015   -0.062004    0.134314    1.716897
H    -1.437907   -5.100297    0.617244   -0.035104    0.075257    0.962059
37
* Frequency(6) -237.1972
C    -7.228152    3.035780   -0.284036   -0.000009    0.000012    0.000191
C    -5.971927    3.680616   -0.284341   -0.000002    0.000001    0.000008
C    -4.785311    2.977862   -0.183550   -0.000011    0.000021    0.000240
C    -4.786502    1.571759   -0.075435   -0.000030    0.000061    0.000742
C    -3.572406    0.822798    0.029135    0.000036   -0.000067   -0.000978
C    -3.582090   -0.539574    0.133628    0.000064   -0.000110   -0.001575
C    -4.803262   -1.295230    0.145093    0.000008   -0.000004   -0.000095
C    -4.823753   -2.726402    0.254459    0.000087   -0.000184   -0.002500
C    -6.087537   -3.363553    0.257349    0.000535   -0.001099   -0.014204
C    -7.274179   -2.659248    0.158611    0.000211   -0.000435   -0.005598
C    -7.282611   -1.254927    0.049193   -0.000027    0.000065    0.000894
C    -8.495312   -0.506596   -0.053731   -0.000021    0.000045    0.000619
C    -8.492492    0.855842   -0.160077   -0.000015    0.000034    0.000502
C    -7.267390    1.606974   -0.173589   -0.000020    0.000045    0.000589
C    -6.032995    0.872029   -0.069265   -0.000033    0.000074    0.000914
C    -6.035660   -0.560594    0.041832   -0.000033    0.000078    0.000955
C    -8.457036    3.814744   -0.394529   -0.000001   -0.000006   -0.000040
C    -3.590899   -3.498653    0.356559   -0.001639    0.003431    0.044633
C    -8.569521    5.163749   -0.507914    0.000006   -0.000008   -0.000066
C    -3.495605   -4.851651    0.463452   -0.002664    0.005613    0.072402
C    -9.833447    5.814771   -0.609693    0.000001   -0.000000   -0.000032
N    -2.337558   -5.562885    0.581078    0.010208   -0.021949   -0.281321
N   -10.857091    6.362124   -0.693814   -0.000007    0.000020    0.000223
H    -5.928084    4.768324   -0.365892    0.000025   -0.000056   -0.000736
H    -3.830761    3.510859   -0.186810    0.000023   -0.000045   -0.000649