37
* (null), Energy   -1000.0000000
C    -7.224528    3.028884   -0.273779   -0.006010    0.008368    0.131458
C    -5.967193    3.672112   -0.258684   -0.005195    0.007281    0.112090
C    -4.782071    2.966838   -0.157569   -0.001862    0.002789    0.040995
C    -4.785366    1.559348   -0.067128   -0.000241    0.000678    0.008281
C    -3.572594    0.808786    0.050173    0.001066   -0.000659   -0.014195
C    -3.584828   -0.554992    0.134739    0.001471   -0.000955   -0.019273
C    -4.808046   -1.306524    0.101686    0.001062   -0.000581   -0.011747
C    -4.829733   -2.737079    0.177896    0.001250   -0.000808   -0.014681
C    -6.088711   -3.379322    0.161174    0.001517   -0.001223   -0.019464
C    -7.278529   -2.672459    0.087864    0.001554   -0.001655   -0.023810
C    -7.285575   -1.267213    0.002438    0.001038   -0.001046   -0.013388
C    -8.497740   -0.515174   -0.097802    0.001833   -0.002709   -0.035407
C    -8.492072    0.848002   -0.188138    0.000691   -0.001298   -0.013934
C    -7.265987    1.599357   -0.184271   -0.002855    0.004039    0.064686
C    -6.033271    0.862133   -0.083320   -0.000921    0.001574    0.024207
C    -6.038705   -0.571408    0.005010    0.000454   -0.000020   -0.000538
C    -8.452013    3.811385   -0.377197   -0.012872    0.018337    0.288856
C    -3.595540   -3.515875    0.257693    0.000833   -0.001083   -0.011292
C    -8.562158    5.162161   -0.466650    0.020920   -0.029929   -0.481934
C    -3.498846   -4.784122    0.734218   -0.001027   -0.000318   -0.008890
C    -9.824487    5.817085   -0.563156    0.005179   -0.007947   -0.126752
N    -2.373608   -5.568551    0.720135   -0.001274   -0.000811   -0.004157
N   -10.845556    6.369802   -0.642570   -0.006294    0.008339    0.134030
H    -5.921615    4.760652   -0.326830   -0.011720    0.016528    0.255691
H    -3.827161    3.499046   -0.145804   -0.002968    0.004261    0.063786
H    -2.624525    1.352986    0.078268    0.001675   -0.001242   -0.023536
H    -2.636650   -1.082183    0.241716    0.002687   -0.001508   -0.033136
H    -6.128447   -4.470691    0.172278    0.002084   -0.001282   -0.023520
H    -8.230765   -3.210414    0.071133    0.002164   -0.002359   -0.035703
H    -9.447739   -1.057276   -0.101886    0.004109   -0.006307   -0.087036
H    -9.448046    1.365232   -0.262918    0.003939   -0.006870   -0.093823
H    -9.392412    3.258342   -0.383999   -0.051055    0.072687    1.153881
H    -2.673843   -3.045705   -0.097221    0.002234   -0.001755   -0.008479
H    -7.688588    5.820125   -0.469203    0.064398   -0.091510   -1.471707
H    -4.376504   -5.284782    1.156469   -0.002483    0.000866   -0.010502
H    -2.311604   -6.332157    1.381627   -0.003434    0.000732   -0.002157
H    -1.486594   -5.138422    0.482073   -0.000419   -0.001466   -0.002174
37
* Frequency(6)  -44.0518
C    -7.225211    3.029834   -0.258839   -0.006010    0.008368    0.131458
C    -5.967783    3.672940   -0.245946   -0.005195    0.007281    0.112090
C    -4.782282    2.967155   -0.152910   -0.001862    0.002789    0.040995
C    -4.785394    1.559425   -0.066187   -0.000241    0.000678    0.008281
C    -3.572473    0.808711    0.048560    0.001066   -0.000659   -0.014195
C    -3.584661   -0.555100    0.132548    0.001471   -0.000955   -0.019273
C    -4.807925   -1.306590    0.100351    0.001062   -0.000581   -0.011747
C    -4.829591   -2.737171    0.176227    0.001250   -0.000808   -0.014681
C    -6.088539   -3.379461    0.158962    0.001517   -0.001223   -0.019464
C    -7.278352   -2.672647    0.085158    0.001554   -0.001655   -0.023810
C    -7.285457   -1.267331    0.000916    0.001038   -0.001046   -0.013388
C    -8.497532   -0.515482   -0.101825    0.001833   -0.002709   -0.035407
C    -8.491994    0.847855   -0.189721    0.000691   -0.001298   -0.013934
C    -7.266311    1.599816   -0.176920   -0.002855    0.004039    0.064686
C    -6.033375    0.862312   -0.080569   -0.000921    0.001574    0.024207
C    -6.038653   -0.571410    0.004949    0.000454   -0.000020   -0.000538
C    -8.453476    3.813468   -0.344370   -0.012872    0.018337    0.288856
C    -3.595445   -3.515998    0.256409    0.000833   -0.001083   -0.011292
C    -8.559780    5.158760   -0.521420    0.020920   -0.029929   -0.481934
C    -3.498963   -4.784158    0.733208   -0.001027   -0.000318   -0.008890
C    -9.823898    5.816181   -0.577561    0.005179   -0.007947   -0.126752
N    -2.373752   -5.568643    0.719663   -0.001274   -0.000811   -0.004157
N   -10.846271    6.370750   -0.627338   -0.006294    0.008339    0.134030
H    -5.922947    4.762530   -0.297772   -0.011720    0.016528    0.255691
H    -3.827499    3.499530   -0.138555   -0.002968    0.004261    0.063786
H    -2.624334    1.352845    0.075594    0.001675   -0.001242   -0.023536
H    -2.636345   -1.082355    0.237950    0.002687   -0.001508   -0.033136
H    -6.128211   -4.470837    0.169605    0.002084   -0.001282   -0.023520
H    -8.230519   -3.210683    0.067076    0.002164   -0.002359   -0.035703
H    -9.447272   -1.057992   -0.111777    0.004109   -0.006307   -0.087036
H    -9.447598    1.364451   -0.273581    0.003939   -0.006870   -0.093823
H    -9.398214    3.266603   -0.252867   -0.051055    0.072687    1.153881
H    -2.673589   -3.045904   -0.098184    0.002234   -0.001755   -0.008479
H    -7.681269    5.809726   -0.636455    0.064398   -0.091510   -1.471707
H    -4.376786   -5.284684    1.155275   -0.002483    0.000866   -0.010502
H    -2.311994   -6.332073    1.381382   -0.003434    0.000732   -0.002157
H    -1.486642   -5.138589    0.481826   -0.000419   -0.001466   -0.002174
37
* Frequency(6)  -44.0518
C    -7.225820    3.030682   -0.245519   -0.006010    0.008368    0.131458
C    -5.968309    3.673677   -0.234588   -0.005195    0.007281    0.112090
C    -4.782471    2.967438   -0.148756   -0.001862    0.002789    0.040995
C    -4.785418    1.559494   -0.065348   -0.000241    0.000678    0.008281
C    -3.572365    0.808645    0.047121    0.001066   -0.000659   -0.014195
C    -3.584512   -0.555197    0.130596    0.001471   -0.000955   -0.019273
C    -4.807818   -1.306649    0.099161    0.001062   -0.000581   -0.011747
C    -4.829464   -2.737253    0.174740    0.001250   -0.000808   -0.014681
C    -6.088385   -3.379585    0.156989    0.001517   -0.001223   -0.019464
C    -7.278195   -2.672815    0.082746    0.001554   -0.001655   -0.023810
C    -7.285352   -1.267437   -0.000440    0.001038   -0.001046   -0.013388
C    -8.497346   -0.515757   -0.105413    0.001833   -0.002709   -0.035407
C    -8.491924    0.847723   -0.191133    0.000691   -0.001298   -0.013934
C    -7.266600    1.600225   -0.170365   -0.002855    0.004039    0.064686
C    -6.033469    0.862471   -0.078116   -0.000921    0.001574    0.024207
C    -6.038607   -0.571412    0.004894    0.000454   -0.000020   -0.000538
C    -8.454780    3.815327   -0.315101   -0.012872    0.018337    0.288856
C    -3.595360   -3.516108    0.255265    0.000833   -0.001083   -0.011292
C    -8.557661    5.155727   -0.570254    0.020920   -0.029929   -0.481934
C    -3.499067   -4.784191    0.732307   -0.001027   -0.000318   -0.008890
C    -9.823374    5.815376   -0.590405    0.005179   -0.007947   -0.126752
N    -2.373881   -5.568725    0.719241   -0.001274   -0.000811   -0.004157
N   -10.846909    6.371595   -0.613757   -0.006294    0.008339    0.134030
H    -5.924134    4.764205   -0.271863   -0.011720    0.016528    0.255691
H    -3.827799    3.499962   -0.132091   -0.002968    0.004261    0.063786
H    -2.624165    1.352719    0.073209    0.001675   -0.001242   -0.023536
H    -2.636073   -1.082508    0.234593    0.002687   -0.001508   -0.033136
H    -6.127999   -4.470967    0.167222    0.002084   -0.001282   -0.023520
H    -8.230299   -3.210922    0.063458    0.002164   -0.002359   -0.035703
H    -9.446856   -1.058632   -0.120597    0.004109   -0.006307   -0.087036
H    -9.447199    1.363755   -0.283088    0.003939   -0.006870   -0.093823
H    -9.403388    3.273968   -0.135944   -0.051055    0.072687    1.153881
H    -2.673362   -3.046082   -0.099044    0.002234   -0.001755   -0.008479
H    -7.674744    5.800453   -0.785583    0.064398   -0.091510   -1.471707
H    -4.377038   -5.284596    1.154211   -0.002483    0.000866   -0.010502
H    -2.312342   -6.331999    1.381163   -0.003434    0.000732   -0.002157
H    -1.486684   -5.138737    0.481606   -0.000419   -0.001466   -0.002174
37
* Frequency(6)  -44.0518
C    -7.226289    3.031335   -0.235261   -0.006010    0.008368    0.131458
C    -5.968715    3.674246   -0.225841   -0.005195    0.007281    0.112090
C    -4.782616    2.967656   -0.145557   -0.001862    0.002789    0.040995
C    -4.785437    1.559547   -0.064702   -0.000241    0.000678    0.008281
C    -3.572282    0.808593    0.046013    0.001066   -0.000659   -0.014195
C    -3.584397   -0.555271    0.129092    0.001471   -0.000955   -0.019273
C    -4.807735   -1.306694    0.098244    0.001062   -0.000581   -0.011747
C    -4.829366   -2.737316    0.173594    0.001250   -0.000808   -0.014681
C    -6.088267   -3.379680    0.155470    0.001517   -0.001223   -0.019464
C    -7.278073   -2.672944    0.080888    0.001554   -0.001655   -0.023810
C    -7.285271   -1.267519   -0.001485    0.001038   -0.001046   -0.013388
C    -8.497203   -0.515968   -0.108176    0.001833   -0.002709   -0.035407
C    -8.491870    0.847622   -0.192221    0.000691   -0.001298   -0.013934
C    -7.266823    1.600540   -0.165317   -0.002855    0.004039    0.064686
C    -6.033541    0.862594   -0.076227   -0.000921    0.001574    0.024207
C    -6.038571   -0.571414    0.004852    0.000454   -0.000020   -0.000538
C    -8.455784    3.816757   -0.292560   -0.012872    0.018337    0.288856
C    -3.595295   -3.516192    0.254384    0.000833   -0.001083   -0.011292
C    -8.556028    5.153392   -0.607861    0.020920   -0.029929   -0.481934
C    -3.499147   -4.784215    0.731614   -0.001027   -0.000318   -0.008890
C    -9.822970    5.814756   -0.600296    0.005179   -0.007947   -0.126752
N    -2.373981   -5.568788    0.718917   -0.001274   -0.000811   -0.004157
N   -10.847400    6.372246   -0.603298   -0.006294    0.008339    0.134030
H    -5.925049    4.765495   -0.251910   -0.011720    0.016528    0.255691
H    -3.828031    3.500294   -0.127114   -0.002968    0.004261    0.063786
H    -2.624034    1.352622    0.071372    0.001675   -0.001242   -0.023536
H    -2.635863   -1.082625    0.232007    0.002687   -0.001508   -0.033136
H    -6.127837   -4.471067    0.165386    0.002084   -0.001282   -0.023520
H    -8.230131   -3.211106    0.060672    0.002164   -0.002359   -0.035703
H    -9.446535   -1.059124   -0.127388    0.004109   -0.006307   -0.087036
H    -9.446892    1.363219   -0.290409    0.003939   -0.006870   -0.093823
H    -9.407372    3.279640   -0.045903   -0.051055    0.072687    1.153881
H    -2.673188   -3.046219   -0.099705    0.002234   -0.001755   -0.008479
H    -7.669718    5.793312   -0.900425    0.064398   -0.091510   -1.471707
H    -4.377232   -5.284529    1.153391   -0.002483    0.000866   -0.010502
H    -2.312610   -6.331942    1.380995   -0.003434    0.000732   -0.002157
H    -1.486717   -5.138852    0.481436   -0.000419   -0.001466   -0.002174
37
* Frequency(6)  -44.0518
C    -7.226567    3.031723   -0.229176   -0.006010    0.008368    0.131458
C    -5.968955    3.674583   -0.220653   -0.005195    0.007281    0.112090
C    -4.782703    2.967785   -0.143660   -0.001862    0.002789    0.040995
C    -4.785448    1.559578   -0.064319   -0.000241    0.000678    0.008281
C    -3.572233    0.808563    0.045356    0.001066   -0.000659   -0.014195
C    -3.584329   -0.555316    0.128200    0.001471   -0.000955   -0.019273
C    -4.807686   -1.306721    0.097700    0.001062   -0.000581   -0.011747
C    -4.829308   -2.737353    0.172915    0.001250   -0.000808   -0.014681
C    -6.088196   -3.379737    0.154570    0.001517   -0.001223   -0.019464
C    -7.278002   -2.673021    0.079786    0.001554   -0.001655   -0.023810
C    -7.285223   -1.267568   -0.002105    0.001038   -0.001046   -0.013388
C    -8.497118   -0.516093   -0.109815    0.001833   -0.002709   -0.035407
C    -8.491838    0.847562   -0.192866    0.000691   -0.001298   -0.013934
C    -7.266955    1.600727   -0.162324   -0.002855    0.004039    0.064686
C    -6.033583    0.862667   -0.075107   -0.000921    0.001574    0.024207
C    -6.038550   -0.571415    0.004827    0.000454   -0.000020   -0.000538
C    -8.456380    3.817606   -0.279191   -0.012872    0.018337    0.288856
C    -3.595257   -3.516243    0.253861    0.000833   -0.001083   -0.011292
C    -8.555060    5.152007   -0.630166    0.020920   -0.029929   -0.481934
C    -3.499195   -4.784230    0.731202   -0.001027   -0.000318   -0.008890
C    -9.822730    5.814388   -0.606162    0.005179   -0.007947   -0.126752
N    -2.374040   -5.568826    0.718725   -0.001274   -0.000811   -0.004157
N   -10.847691    6.372631   -0.597095   -0.006294    0.008339    0.134030
H    -5.925591    4.766259   -0.240077   -0.011720    0.016528    0.255691
H    -3.828168    3.500491   -0.124162   -0.002968    0.004261    0.063786
H    -2.623957    1.352565    0.070283    0.001675   -0.001242   -0.023536
H    -2.635739   -1.082695    0.230473    0.002687   -0.001508   -0.033136
H    -6.127740   -4.471126    0.164298    0.002084   -0.001282   -0.023520
H    -8.230030   -3.211215    0.059020    0.002164   -0.002359   -0.035703
H    -9.446345   -1.059416   -0.131417    0.004109   -0.006307   -0.087036
H    -9.446709    1.362901   -0.294751    0.003939   -0.006870   -0.093823
H    -9.409735    3.283004    0.007501   -0.051055    0.072687    1.153881
H    -2.673085   -3.046300   -0.100098    0.002234   -0.001755   -0.008479
H    -7.666738    5.789077   -0.968539    0.064398   -0.091510   -1.471707
H    -4.377347   -5.284489    1.152905   -0.002483    0.000866   -0.010502
H    -2.312769   -6.331908    1.380895   -0.003434    0.000732   -0.002157
H    -1.486736   -5.138920    0.481335   -0.000419   -0.001466   -0.002174
37
* Frequency(6)  -44.0518
C    -7.226624    3.031802   -0.227926   -0.006010    0.008368    0.131458
C    -5.969005    3.674652   -0.219587   -0.005195    0.007281    0.112090
C    -4.782720    2.967811   -0.143270   -0.001862    0.002789    0.040995
C    -4.785450    1.559585   -0.064240   -0.000241    0.000678    0.008281
C    -3.572223    0.808556    0.045221    0.001066   -0.000659   -0.014195
C    -3.584315   -0.555325    0.128016    0.001471   -0.000955   -0.019273
C    -4.807675   -1.306727    0.097588    0.001062   -0.000581   -0.011747
C    -4.829297   -2.737361    0.172775    0.001250   -0.000808   -0.014681
C    -6.088182   -3.379748    0.154384    0.001517   -0.001223   -0.019464
C    -7.277987   -2.673037    0.079559    0.001554   -0.001655   -0.023810
C    -7.285213   -1.267578   -0.002232    0.001038   -0.001046   -0.013388
C    -8.497101   -0.516119   -0.110152    0.001833   -0.002709   -0.035407
C    -8.491831    0.847549   -0.192998    0.000691   -0.001298   -0.013934
C    -7.266982    1.600765   -0.161708   -0.002855    0.004039    0.064686
C    -6.033592    0.862682   -0.074877   -0.000921    0.001574    0.024207
C    -6.038546   -0.571415    0.004822    0.000454   -0.000020   -0.000538
C    -8.456503    3.817781   -0.276443   -0.012872    0.018337    0.288856
C    -3.595249   -3.516253    0.253754    0.000833   -0.001083   -0.011292
C    -8.554861    5.151722   -0.634751    0.020920   -0.029929   -0.481934
C    -3.499204   -4.784233    0.731118   -0.001027   -0.000318   -0.008890
C    -9.822681    5.814313   -0.607368    0.005179   -0.007947   -0.126752
N    -2.374052   -5.568834    0.718685   -0.001274   -0.000811   -0.004157
N   -10.847751    6.372711   -0.595820   -0.006294    0.008339    0.134030
H    -5.925703    4.766417   -0.237644   -0.011720    0.016528    0.255691
H    -3.828197    3.500532   -0.123555   -0.002968    0.004261    0.063786
H    -2.623941    1.352553    0.070059    0.001675   -0.001242   -0.023536
H    -2.635713   -1.082709    0.230158    0.002687   -0.001508   -0.033136
H    -6.127721   -4.471138    0.164074    0.002084   -0.001282   -0.023520
H    -8.230010   -3.211237    0.058680    0.002164   -0.002359   -0.035703
H    -9.446306   -1.059476   -0.132245    0.004109   -0.006307   -0.087036
H    -9.446672    1.362836   -0.295644    0.003939   -0.006870   -0.093823
H    -9.410221    3.283696    0.018480   -0.051055    0.072687    1.153881
H    -2.673063   -3.046317   -0.100178    0.002234   -0.001755   -0.008479
H    -7.666125    5.788206   -0.982541    0.064398   -0.091510   -1.471707
H    -4.377370   -5.284480    1.152805   -0.002483    0.000866   -0.010502
H    -2.312802   -6.331901    1.380875   -0.003434    0.000732   -0.002157
H    -1.486740   -5.138933    0.481315   -0.000419   -0.001466   -0.002174
37
* Frequency(6)  -44.0518
C    -7.226454    3.031566   -0.231644   -0.006010    0.008368    0.131458
C    -5.968858    3.674446   -0.222757   -0.005195    0.007281    0.112090
C    -4.782668    2.967732   -0.144429   -0.001862    0.002789    0.040995
C    -4.785444    1.559566   -0.064474   -0.000241    0.000678    0.008281
C    -3.572253    0.808575    0.045623    0.001066   -0.000659   -0.014195
C    -3.584357   -0.555298    0.128561    0.001471   -0.000955   -0.019273
C    -4.807705   -1.306710    0.097921    0.001062   -0.000581   -0.011747
C    -4.829332   -2.737338    0.173190    0.001250   -0.000808   -0.014681
C    -6.088225   -3.379714    0.154935    0.001517   -0.001223   -0.019464
C    -7.278031   -2.672990    0.080233    0.001554   -0.001655   -0.023810
C    -7.285243   -1.267548   -0.001854    0.001038   -0.001046   -0.013388
C    -8.497153   -0.516043   -0.109150    0.001833   -0.002709   -0.035407
C    -8.491851    0.847586   -0.192604    0.000691   -0.001298   -0.013934
C    -7.266902    1.600651   -0.163538   -0.002855    0.004039    0.064686
C    -6.033566    0.862637   -0.075561   -0.000921    0.001574    0.024207
C    -6.038559   -0.571414    0.004837    0.000454   -0.000020   -0.000538
C    -8.456139    3.817262   -0.284613   -0.012872    0.018337    0.288856
C    -3.595272   -3.516222    0.254073    0.000833   -0.001083   -0.011292
C    -8.555453    5.152568   -0.621120    0.020920   -0.029929   -0.481934
C    -3.499175   -4.784224    0.731369   -0.001027   -0.000318   -0.008890
C    -9.822827    5.814537   -0.603783    0.005179   -0.007947   -0.126752
N    -2.374016   -5.568811    0.718803   -0.001274   -0.000811   -0.004157
N   -10.847573    6.372475   -0.599610   -0.006294    0.008339    0.134030
H    -5.925371    4.765949   -0.244876   -0.011720    0.016528    0.255691
H    -3.828113    3.500411   -0.125359   -0.002968    0.004261    0.063786
H    -2.623988    1.352588    0.070725    0.001675   -0.001242   -0.023536
H    -2.635789   -1.082667    0.231095    0.002687   -0.001508   -0.033136
H    -6.127780   -4.471102    0.164739    0.002084   -0.001282   -0.023520
H    -8.230071   -3.211171    0.059690    0.002164   -0.002359   -0.035703
H    -9.446422   -1.059297   -0.129783    0.004109   -0.006307   -0.087036
H    -9.446783    1.363030   -0.292990    0.003939   -0.006870   -0.093823
H    -9.408776    3.281640   -0.014157   -0.051055    0.072687    1.153881
H    -2.673127   -3.046267   -0.099938    0.002234   -0.001755   -0.008479
H    -7.667947    5.790795   -0.940916    0.064398   -0.091510   -1.471707
H    -4.377300   -5.284505    1.153102   -0.002483    0.000866   -0.010502
H    -2.312704   -6.331922    1.380936   -0.003434    0.000732   -0.002157
H    -1.486728   -5.138892    0.481376   -0.000419   -0.001466   -0.002174
37
* Frequency(6)  -44.0518
C    -7.226075    3.031038   -0.239928   -0.006010    0.008368    0.131458
C    -5.968530    3.673987   -0.229821   -0.005195    0.007281    0.112090
C    -4.782550    2.967557   -0.147012   -0.001862    0.002789    0.040995
C    -4.785428    1.559523   -0.064996   -0.000241    0.000678    0.008281
C    -3.572320    0.808617    0.046517    0.001066   -0.000659   -0.014195
C    -3.584450   -0.555238    0.129776    0.001471   -0.000955   -0.019273
C    -4.807772   -1.306674    0.098661    0.001062   -0.000581   -0.011747
C    -4.829411   -2.737287    0.174115    0.001250   -0.000808   -0.014681
C    -6.088321   -3.379637    0.156161    0.001517   -0.001223   -0.019464
C    -7.278129   -2.672886    0.081733    0.001554   -0.001655   -0.023810
C    -7.285308   -1.267482   -0.001010    0.001038   -0.001046   -0.013388
C    -8.497268   -0.515872   -0.106919    0.001833   -0.002709   -0.035407
C    -8.491894    0.847668   -0.191726    0.000691   -0.001298   -0.013934
C    -7.266722    1.600397   -0.167614   -0.002855    0.004039    0.064686
C    -6.033508    0.862538   -0.077087   -0.000921    0.001574    0.024207
C    -6.038588   -0.571413    0.004871    0.000454   -0.000020   -0.000538
C    -8.455327    3.816106   -0.302816   -0.012872    0.018337    0.288856
C    -3.595325   -3.516154    0.254785    0.000833   -0.001083   -0.011292
C    -8.556771    5.154454   -0.590750    0.020920   -0.029929   -0.481934
C    -3.499111   -4.784204    0.731929   -0.001027   -0.000318   -0.008890
C    -9.823153    5.815038   -0.595795    0.005179   -0.007947   -0.126752
N    -2.373936   -5.568760    0.719065   -0.001274   -0.000811   -0.004157
N   -10.847176    6.371949   -0.608057   -0.006294    0.008339    0.134030
H    -5.924633    4.764908   -0.260989   -0.011720    0.016528    0.255691
H    -3.827926    3.500143   -0.129379   -0.002968    0.004261    0.063786
H    -2.624094    1.352667    0.072208    0.001675   -0.001242   -0.023536
H    -2.635959   -1.082572    0.233183    0.002687   -0.001508   -0.033136
H    -6.127911   -4.471021    0.166221    0.002084   -0.001282   -0.023520
H    -8.230207   -3.211022    0.061940    0.002164   -0.002359   -0.035703
H    -9.446681   -1.058900   -0.124298    0.004109   -0.006307   -0.087036
H    -9.447032    1.363463   -0.287078    0.003939   -0.006870   -0.093823
H    -9.405559    3.277060   -0.086871   -0.051055    0.072687    1.153881
H    -2.673267   -3.046157   -0.099404    0.002234   -0.001755   -0.008479
H    -7.672005    5.796561   -0.848173    0.064398   -0.091510   -1.471707
H    -4.377144   -5.284559    1.153764   -0.002483    0.000866   -0.010502
H    -2.312488   -6.331968    1.381072   -0.003434    0.000732   -0.002157
H    -1.486702   -5.138800    0.481513   -0.000419   -0.001466   -0.002174
37
* Frequency(6)  -44.0518
C    -7.225529    3.030277   -0.251880   -0.006010    0.008368    0.131458
C    -5.968058    3.673325   -0.240012   -0.005195    0.007281    0.112090
C    -4.782381    2.967303   -0.150740   -0.001862    0.002789    0.040995
C    -4.785407    1.559461   -0.065749   -0.000241    0.000678    0.008281
C    -3.572417    0.808677    0.047808    0.001066   -0.000659   -0.014195
C    -3.584583   -0.555151    0.131528    0.001471   -0.000955   -0.019273
C    -4.807869   -1.306621    0.099729    0.001062   -0.000581   -0.011747
C    -4.829524   -2.737213    0.175450    0.001250   -0.000808   -0.014681
C    -6.088458   -3.379526    0.157931    0.001517   -0.001223   -0.019464
C    -7.278270   -2.672735    0.083898    0.001554   -0.001655   -0.023810
C    -7.285402   -1.267387    0.000207    0.001038   -0.001046   -0.013388
C    -8.497435   -0.515626   -0.103700    0.001833   -0.002709   -0.035407
C    -8.491957    0.847786   -0.190459    0.000691   -0.001298   -0.013934
C    -7.266462    1.600029   -0.173495   -0.002855    0.004039    0.064686
C    -6.033424    0.862395   -0.079288   -0.000921    0.001574    0.024207
C    -6.038629   -0.571411    0.004920    0.000454   -0.000020   -0.000538
C    -8.454157    3.814439   -0.329079   -0.012872    0.018337    0.288856
C    -3.595401   -3.516056    0.255812    0.000833   -0.001083   -0.011292
C    -8.558673    5.157176   -0.546932    0.020920   -0.029929   -0.481934
C    -3.499017   -4.784175    0.732737   -0.001027   -0.000318   -0.008890
C    -9.823624    5.815761   -0.584271    0.005179   -0.007947   -0.126752
N    -2.373820   -5.568686    0.719443   -0.001274   -0.000811   -0.004157
N   -10.846604    6.371191   -0.620243   -0.006294    0.008339    0.134030
H    -5.923567    4.763405   -0.284237   -0.011720    0.016528    0.255691
H    -3.827656    3.499756   -0.135178   -0.002968    0.004261    0.063786
H    -2.624246    1.352779    0.074348    0.001675   -0.001242   -0.023536
H    -2.636203   -1.082435    0.236196    0.002687   -0.001508   -0.033136
H    -6.128100   -4.470904    0.168360    0.002084   -0.001282   -0.023520
H    -8.230404   -3.210807    0.065186    0.002164   -0.002359   -0.035703
H    -9.447055   -1.058326   -0.116385    0.004109   -0.006307   -0.087036
H    -9.447390    1.364087   -0.278547    0.003939   -0.006870   -0.093823
H    -9.400917    3.270451   -0.191784   -0.051055    0.072687    1.153881
H    -2.673470   -3.045997   -0.098633    0.002234   -0.001755   -0.008479
H    -7.677860    5.804881   -0.714362    0.064398   -0.091510   -1.471707
H    -4.376918   -5.284638    1.154719   -0.002483    0.000866   -0.010502
H    -2.312176   -6.332035    1.381268   -0.003434    0.000732   -0.002157
H    -1.486664   -5.138666    0.481711   -0.000419   -0.001466   -0.002174
37
* Frequency(6)  -44.0518
C    -7.224874    3.029366   -0.266206   -0.006010    0.008368    0.131458
C    -5.967492    3.672532   -0.252227   -0.005195    0.007281    0.112090
C    -4.782178    2.966999   -0.155207   -0.001862    0.002789    0.040995
C    -4.785380    1.559387   -0.066651   -0.000241    0.000678    0.008281
C    -3.572533    0.808748    0.049355    0.001066   -0.000659   -0.014195
C    -3.584744   -0.555047    0.133628    0.001471   -0.000955   -0.019273
C    -4.807985   -1.306558    0.101009    0.001062   -0.000581   -0.011747
C    -4.829661   -2.737125    0.177050    0.001250   -0.000808   -0.014681
C    -6.088624   -3.379392    0.160052    0.001517   -0.001223   -0.019464
C    -7.278439   -2.672555    0.086493    0.001554   -0.001655   -0.023810
C    -7.285516   -1.267273    0.001666    0.001038   -0.001046   -0.013388
C    -8.497635   -0.515330   -0.099841    0.001833   -0.002709   -0.035407
C    -8.492032    0.847927   -0.188941    0.000691   -0.001298   -0.013934
C    -7.266151    1.599589   -0.180544   -0.002855    0.004039    0.064686
C    -6.033324    0.862224   -0.081926   -0.000921    0.001574    0.024207
C    -6.038678   -0.571409    0.004979    0.000454   -0.000020   -0.000538
C    -8.452754    3.812441   -0.360557   -0.012872    0.018337    0.288856
C    -3.595492   -3.515938    0.257042    0.000833   -0.001083   -0.011292
C    -8.560953    5.160437   -0.494414    0.020920   -0.029929   -0.481934
C    -3.498905   -4.784141    0.733706   -0.001027   -0.000318   -0.008890
C    -9.824189    5.816627   -0.570458    0.005179   -0.007947   -0.126752
N    -2.373681   -5.568597    0.719896   -0.001274   -0.000811   -0.004157
N   -10.845918    6.370283   -0.634849   -0.006294    0.008339    0.134030
H    -5.922290    4.761604   -0.312100   -0.011720    0.016528    0.255691
H    -3.827332    3.499291   -0.142129   -0.002968    0.004261    0.063786
H    -2.624428    1.352915    0.076913    0.001675   -0.001242   -0.023536
H    -2.636496   -1.082270    0.239807    0.002687   -0.001508   -0.033136
H    -6.128327   -4.470765    0.170923    0.002084   -0.001282   -0.023520
H    -8.230640   -3.210550    0.069077    0.002164   -0.002359   -0.035703
H    -9.447503   -1.057639   -0.106900    0.004109   -0.006307   -0.087036
H    -9.447819    1.364836   -0.268323    0.003939   -0.006870   -0.093823
H    -9.395353    3.262530   -0.317526   -0.051055    0.072687    1.153881
H    -2.673714   -3.045806   -0.097709    0.002234   -0.001755   -0.008479
H    -7.684878    5.814854   -0.553985    0.064398   -0.091510   -1.471707
H    -4.376647   -5.284733    1.155864   -0.002483    0.000866   -0.010502
H    -2.311802   -6.332115    1.381503   -0.003434    0.000732   -0.002157
H    -1.486618   -5.138507    0.481948   -0.000419   -0.001466   -0.002174
37
* Frequency(6)  -44.0518
C    -7.224182    3.028401   -0.281352   -0.006010    0.008368    0.131458
C    -5.966893    3.671693   -0.265142   -0.005195    0.007281    0.112090
C    -4.781963    2.966678   -0.159930   -0.001862    0.002789    0.040995
C    -4.785353    1.559309   -0.067605   -0.000241    0.000678    0.008281
C    -3.572656    0.808824    0.050991    0.001066   -0.000659   -0.014195
C    -3.584913   -0.554937    0.135849    0.001471   -0.000955   -0.019273
C    -4.808107   -1.306491    0.102363    0.001062   -0.000581   -0.011747
C    -4.829805   -2.737032    0.178742    0.001250   -0.000808   -0.014681
C    -6.088799   -3.379252    0.162295    0.001517   -0.001223   -0.019464
C    -7.278618   -2.672364    0.089236    0.001554   -0.001655   -0.023810
C    -7.285635   -1.267152    0.003209    0.001038   -0.001046   -0.013388
C    -8.497846   -0.515018   -0.095762    0.001833   -0.002709   -0.035407
C    -8.492112    0.848077   -0.187335    0.000691   -0.001298   -0.013934
C    -7.265822    1.599124   -0.187997   -0.002855    0.004039    0.064686
C    -6.033218    0.862042   -0.084715   -0.000921    0.001574    0.024207
C    -6.038731   -0.571407    0.005041    0.000454   -0.000020   -0.000538
C    -8.451271    3.810328   -0.393838   -0.012872    0.018337    0.288856
C    -3.595588   -3.515813    0.258343    0.000833   -0.001083   -0.011292
C    -8.563363    5.163885   -0.438887    0.020920   -0.029929   -0.481934
C    -3.498787   -4.784104    0.734730   -0.001027   -0.000318   -0.008890
C    -9.824785    5.817542   -0.555854    0.005179   -0.007947   -0.126752
N    -2.373534   -5.568504    0.720375   -0.001274   -0.000811   -0.004157
N   -10.845193    6.369322   -0.650291   -0.006294    0.008339    0.134030
H    -5.920940    4.759700   -0.341560   -0.011720    0.016528    0.255691
H    -3.826990    3.498800   -0.149478   -0.002968    0.004261    0.063786