Start Job  on nano17

                                 *****************
                                 * O   R   C   A *
                                 *****************

                                            #,                                       
                                            ###                                      
                                            ####                                     
                                            #####                                    
                                            ######                                   
                                           ########,                                 
                                     ,,################,,,,,                         
                               ,,#################################,,                 
                          ,,##########################################,,             
                       ,#########################################, ''#####,          
                    ,#############################################,,   '####,        
                  ,##################################################,,,,####,       
                ,###########''''           ''''###############################       
              ,#####''   ,,,,##########,,,,          '''####'''          '####       
            ,##' ,,,,###########################,,,                        '##       
           ' ,,###''''                  '''############,,,                           
         ,,##''                                '''############,,,,        ,,,,,,###''
      ,#''                                            '''#######################'''  
     '                                                          ''''####''''         
             ,#######,   #######,   ,#######,      ##                                
            ,#'     '#,  ##    ##  ,#'     '#,    #''#        ######   ,####,        
            ##       ##  ##   ,#'  ##            #'  '#       #        #'  '#        
            ##       ##  #######   ##           ,######,      #####,   #    #        
            '#,     ,#'  ##    ##  '#,     ,#' ,#      #,         ##   #,  ,#        
             '#######'   ##     ##  '#######'  #'      '#     #####' # '####'        



                  #######################################################
                  #                        -***-                        #
                  #          Department of theory and spectroscopy      #
                  #    Directorship and core code : Frank Neese         #
                  #        Max Planck Institute fuer Kohlenforschung    #
                  #                Kaiser Wilhelm Platz 1               #
                  #                 D-45470 Muelheim/Ruhr               #
                  #                      Germany                        #
                  #                                                     #
                  #                  All rights reserved                #
                  #                        -***-                        #
                  #######################################################


                         Program Version 5.0.4 -  RELEASE  -


 With contributions from (in alphabetic order):
   Daniel Aravena         : Magnetic Suceptibility
   Michael Atanasov       : Ab Initio Ligand Field Theory (pilot matlab implementation)
   Alexander A. Auer      : GIAO ZORA, VPT2 properties, NMR spectrum
   Ute Becker             : Parallelization
   Giovanni Bistoni       : ED, misc. LED, open-shell LED, HFLD
   Martin Brehm           : Molecular dynamics
   Dmytro Bykov           : SCF Hessian
   Vijay G. Chilkuri      : MRCI spin determinant printing, contributions to CSF-ICE
   Dipayan Datta          : RHF DLPNO-CCSD density
   Achintya Kumar Dutta   : EOM-CC, STEOM-CC
   Dmitry Ganyushin       : Spin-Orbit,Spin-Spin,Magnetic field MRCI
   Miquel Garcia          : C-PCM and meta-GGA Hessian, CC/C-PCM, Gaussian charge scheme
   Yang Guo               : DLPNO-NEVPT2, F12-NEVPT2, CIM, IAO-localization
   Andreas Hansen         : Spin unrestricted coupled pair/coupled cluster methods
   Benjamin Helmich-Paris : MC-RPA, TRAH-SCF, COSX integrals
   Lee Huntington         : MR-EOM, pCC
   Robert Izsak           : Overlap fitted RIJCOSX, COSX-SCS-MP3, EOM
   Marcus Kettner         : VPT2
   Christian Kollmar      : KDIIS, OOCD, Brueckner-CCSD(T), CCSD density, CASPT2, CASPT2-K
   Simone Kossmann        : Meta GGA functionals, TD-DFT gradient, OOMP2, MP2 Hessian
   Martin Krupicka        : Initial AUTO-CI
   Lucas Lang             : DCDCAS
   Marvin Lechner         : AUTO-CI (C++ implementation), FIC-MRCC
   Dagmar Lenk            : GEPOL surface, SMD
   Dimitrios Liakos       : Extrapolation schemes; Compound Job, initial MDCI parallelization
   Dimitrios Manganas     : Further ROCIS development; embedding schemes
   Dimitrios Pantazis     : SARC Basis sets
   Anastasios Papadopoulos: AUTO-CI, single reference methods and gradients
   Taras Petrenko         : DFT Hessian,TD-DFT gradient, ASA, ECA, R-Raman, ABS, FL, XAS/XES, NRVS
   Peter Pinski           : DLPNO-MP2, DLPNO-MP2 Gradient
   Christoph Reimann      : Effective Core Potentials
   Marius Retegan         : Local ZFS, SOC
   Christoph Riplinger    : Optimizer, TS searches, QM/MM, DLPNO-CCSD(T), (RO)-DLPNO pert. Triples
   Tobias Risthaus        : Range-separated hybrids, TD-DFT gradient, RPA, STAB
   Michael Roemelt        : Original ROCIS implementation
   Masaaki Saitow         : Open-shell DLPNO-CCSD energy and density
   Barbara Sandhoefer     : DKH picture change effects
   Avijit Sen             : IP-ROCIS
   Kantharuban Sivalingam : CASSCF convergence, NEVPT2, FIC-MRCI
   Bernardo de Souza      : ESD, SOC TD-DFT
   Georgi Stoychev        : AutoAux, RI-MP2 NMR, DLPNO-MP2 response
   Willem Van den Heuvel  : Paramagnetic NMR
   Boris Wezisla          : Elementary symmetry handling
   Frank Wennmohs         : Technical directorship


 We gratefully acknowledge several colleagues who have allowed us to
 interface, adapt or use parts of their codes:
   Stefan Grimme, W. Hujo, H. Kruse, P. Pracht,  : VdW corrections, initial TS optimization,
                  C. Bannwarth, S. Ehlert          DFT functionals, gCP, sTDA/sTD-DF
   Ed Valeev, F. Pavosevic, A. Kumar             : LibInt (2-el integral package), F12 methods
   Garnet Chan, S. Sharma, J. Yang, R. Olivares  : DMRG
   Ulf Ekstrom                                   : XCFun DFT Library
   Mihaly Kallay                                 : mrcc  (arbitrary order and MRCC methods)
   Jiri Pittner, Ondrej Demel                    : Mk-CCSD
   Frank Weinhold                                : gennbo (NPA and NBO analysis)
   Christopher J. Cramer and Donald G. Truhlar   : smd solvation model
   Lars Goerigk                                  : TD-DFT with DH, B97 family of functionals
   V. Asgeirsson, H. Jonsson                     : NEB implementation
   FAccTs GmbH                                   : IRC, NEB, NEB-TS, DLPNO-Multilevel, CI-OPT
                                                   MM, QMMM, 2- and 3-layer-ONIOM, Crystal-QMMM,
                                                   LR-CPCM, SF, NACMEs, symmetry and pop. for TD-DFT,
                                                   nearIR, NL-DFT gradient (VV10), updates on ESD,
                                                   ML-optimized integration grids
   S Lehtola, MJT Oliveira, MAL Marques          : LibXC Library
   Liviu Ungur et al                             : ANISO software


 Your calculation uses the libint2 library for the computation of 2-el integrals
 For citations please refer to: http://libint.valeyev.net

 Your ORCA version has been built with support for libXC version: 5.1.0
 For citations please refer to: https://tddft.org/programs/libxc/

 This ORCA versions uses:
   CBLAS   interface :  Fast vector & matrix operations
   LAPACKE interface :  Fast linear algebra routines
   SCALAPACK package :  Parallel linear algebra routines
   Shared memory     :  Shared parallel matrices
   BLAS/LAPACK       :  OpenBLAS 0.3.15  USE64BITINT DYNAMIC_ARCH NO_AFFINITY Zen SINGLE_THREADED
        Core in use  :  Zen
   Copyright (c) 2011-2014, The OpenBLAS Project


================================================================================

----- Orbital basis set information -----
Your calculation utilizes the basis: def2-SVP
   F. Weigend and R. Ahlrichs, Phys. Chem. Chem. Phys. 7, 3297 (2005).

----- AuxJ basis set information -----
Your calculation utilizes the auxiliary basis: def2/J
   F. Weigend, Phys. Chem. Chem. Phys. 8, 1057 (2006).

================================================================================
                                        WARNINGS
                       Please study these warnings very carefully!
================================================================================


WARNING: Geometry Optimization
  ===> : Switching off AutoStart
         For restart on a previous wavefunction, please use MOREAD

INFO   : the flag for use of the SHARK integral package has been found!

================================================================================
                                       INPUT FILE
================================================================================
NAME = NC_NH2_3.inp
|  1> ! B3LYP def2-SVP Opt PAL8 FREQ defgrid3 slowconv VeryTightSCF
|  2> *xyz 0 1
|  3>  C        -7.228155        3.035785       -0.283960
|  4>  C        -5.971928        3.680617       -0.284338
|  5>  C        -4.785316        2.977870       -0.183455
|  6>  C        -4.786514        1.571783       -0.075141
|  7>  C        -3.572392        0.822771        0.028747
|  8>  C        -3.582064       -0.539618        0.133003
|  9>  C        -4.803258       -1.295232        0.145055
| 10>  C        -4.823718       -2.726475        0.253467
| 11>  C        -6.087325       -3.363989        0.251711
| 12>  C        -7.274096       -2.659421        0.156389
| 13>  C        -7.282622       -1.254901        0.049548
| 14>  C        -8.495321       -0.506578       -0.053486
| 15>  C        -8.492498        0.855855       -0.159878
| 16>  C        -7.267398        1.606992       -0.173355
| 17>  C        -6.033008        0.872058       -0.068902
| 18>  C        -6.035673       -0.560563        0.042211
| 19>  C        -8.457037        3.814742       -0.394545
| 20>  C        -3.591550       -3.497291        0.374274
| 21>  C        -8.569518        5.163746       -0.507940
| 22>  C        -3.496662       -4.849423        0.492188
| 23>  C        -9.833447        5.814771       -0.609706
| 24>  N        -2.333507       -5.571596        0.469422
| 25>  N       -10.857094        6.362132       -0.693725
| 26>  H        -5.928074        4.768302       -0.366184
| 27>  H        -3.830752        3.510841       -0.187068
| 28>  H        -2.623204        1.365695        0.022079
| 29>  H        -2.626345       -1.057752        0.206588
| 30>  H        -6.140596       -4.451974        0.325657
| 31>  H        -8.226691       -3.197052        0.160689
| 32>  H        -9.444681       -1.049880       -0.045922
| 33>  H        -9.449552        1.371014       -0.234877
| 34>  H        -9.396788        3.260582       -0.386461
| 35>  H        -2.647644       -2.948149        0.368714
| 36>  H        -7.696838        5.822560       -0.526836
| 37>  H        -4.392509       -5.476990        0.510627
| 38>  H        -2.370078       -6.524207        1.225634
| 39>  H        -1.447795       -5.079098        0.888239
| 40> *
| 41> 
| 42>                          ****END OF INPUT****
================================================================================

                       *****************************
                       * Geometry Optimization Run *
                       *****************************

Geometry optimization settings:
Update method            Update   .... BFGS
Choice of coordinates    CoordSys .... Z-matrix Internals
Initial Hessian          InHess   .... Almoef's Model

Convergence Tolerances:
Energy Change            TolE     ....  5.0000e-06 Eh
Max. Gradient            TolMAXG  ....  3.0000e-04 Eh/bohr
RMS Gradient             TolRMSG  ....  1.0000e-04 Eh/bohr
Max. Displacement        TolMAXD  ....  4.0000e-03 bohr
RMS Displacement         TolRMSD  ....  2.0000e-03 bohr
Strict Convergence                ....  False
------------------------------------------------------------------------------
                        ORCA OPTIMIZATION COORDINATE SETUP
------------------------------------------------------------------------------

The optimization will be done in new redundant internal coordinates
Making redundant internal coordinates   ...  (new redundants) done
Evaluating the initial hessian          ...  (Almloef) done
Evaluating the coordinates              ...  done
Calculating the B-matrix                .... done
Calculating the G-matrix                .... done
Diagonalizing the G-matrix              .... done
Small eigenvalue found = 5.054e-03
Small eigenvalue found = 1.035e-02
Small eigenvalue found = 1.454e-02
The first mode is                       ....   96
The number of degrees of freedom        ....  105

    -----------------------------------------------------------------
                    Redundant Internal Coordinates


    -----------------------------------------------------------------
         Definition                    Initial Value    Approx d2E/dq
    -----------------------------------------------------------------
      1. B(C   1,C   0)                  1.4121         0.576159   
      2. B(C   2,C   1)                  1.3828         0.641592   
      3. B(C   3,C   2)                  1.4103         0.579997   
      4. B(C   4,C   3)                  1.4304         0.538718   
      5. B(C   5,C   4)                  1.3664         0.681366   
      6. B(C   6,C   5)                  1.4361         0.527439   
      7. B(C   7,C   6)                  1.4355         0.528645   
      8. B(C   8,C   7)                  1.4153         0.569302   
      9. B(C   9,C   8)                  1.3834         0.640018   
     10. B(C  10,C   9)                  1.4086         0.583523   
     11. B(C  11,C  10)                  1.4287         0.541954   
     12. B(C  12,C  11)                  1.3666         0.680923   
     13. B(C  13,C  12)                  1.4371         0.525524   
     14. B(C  13,C   0)                  1.4336         0.532316   
     15. B(C  14,C   3)                  1.4295         0.540452   
     16. B(C  14,C  13)                  1.4404         0.519189   
     17. B(C  15,C  14)                  1.4369         0.525861   
     18. B(C  15,C  10)                  1.4272         0.544891   
     19. B(C  15,C   6)                  1.4385         0.522909   
     20. B(C  16,C   0)                  1.4592         0.484613   
     21. B(C  17,C   7)                  1.4584         0.485935   
     22. B(C  18,C  16)                  1.3584         0.701637   
     23. B(C  19,C  17)                  1.3606         0.696116   
     24. B(C  20,C  18)                  1.4254         0.548647   
     25. B(N  21,C  19)                  1.3693         0.603812   
     26. B(N  22,C  20)                  1.1638         1.284412   
     27. B(H  23,C   1)                  1.0916         0.357935   
     28. B(H  24,C   2)                  1.0933         0.355786   
     29. B(H  25,C   4)                  1.0935         0.355484   
     30. B(H  26,C   5)                  1.0896         0.360600   
     31. B(H  27,C   8)                  1.0918         0.357733   
     32. B(H  28,C   9)                  1.0938         0.355046   
     33. B(H  29,C  11)                  1.0939         0.355036   
     34. B(H  30,C  12)                  1.0895         0.360789   
     35. B(H  31,C  16)                  1.0910         0.358774   
     36. B(H  32,C  17)                  1.0920         0.357414   
     37. B(H  33,C  18)                  1.0936         0.355368   
     38. B(H  34,C  19)                  1.0939         0.354915   
     39. B(H  35,N  21)                  1.2168         0.202404   
     40. B(H  36,N  21)                  1.0966         0.314841   
     41. A(C  13,C   0,C  16)          120.9868         0.404280   
     42. A(C   1,C   0,C  16)          120.3604         0.409979   
     43. A(C   1,C   0,C  13)          118.6528         0.416873   
     44. A(C   0,C   1,H  23)          119.3908         0.348211   
     45. A(C   2,C   1,H  23)          118.5136         0.354599   
     46. A(C   0,C   1,C   2)          122.0955         0.431025   
     47. A(C   3,C   2,H  24)          119.1470         0.348247   
     48. A(C   1,C   2,C   3)          120.7696         0.431540   
     49. A(C   1,C   2,H  24)          120.0834         0.354237   
     50. A(C   2,C   3,C  14)          119.2832         0.418495   
     51. A(C   2,C   3,C   4)          121.8007         0.418255   
     52. A(C   4,C   3,C  14)          118.9160         0.413034   
     53. A(C   5,C   4,H  25)          120.1089         0.357821   
     54. A(C   3,C   4,H  25)          118.4481         0.343901   
     55. A(C   3,C   4,C   5)          121.4430         0.430481   
     56. A(C   4,C   5,H  26)          118.2333         0.358692   
     57. A(C   4,C   5,C   6)          122.0910         0.428849   
     58. A(C   6,C   5,H  26)          119.6755         0.343506   
     59. A(C   5,C   6,C   7)          122.5035         0.409878   
     60. A(C   7,C   6,C  15)          120.1596         0.409252   
     61. A(C   5,C   6,C  15)          117.3369         0.409087   
     62. A(C   8,C   7,C  17)          121.0867         0.409307   
     63. A(C   6,C   7,C   8)          117.4993         0.415473   
     64. A(C   6,C   7,C  17)          121.4114         0.403981   
     65. A(C   9,C   8,H  27)          118.0549         0.354417   
     66. A(C   7,C   8,H  27)          119.4948         0.347476   
     67. A(C   7,C   8,C   9)          122.4502         0.429910   
     68. A(C  10,C   9,H  28)          119.0195         0.348480   
     69. A(C   8,C   9,H  28)          119.7670         0.353965   
     70. A(C   8,C   9,C  10)          121.2133         0.431819   
     71. A(C  11,C  10,C  15)          119.1039         0.414075   
     72. A(C   9,C  10,C  15)          118.6970         0.419558   
     73. A(C   9,C  10,C  11)          122.1989         0.419154   
     74. A(C  10,C  11,H  29)          118.4263         0.344175   
     75. A(C  10,C  11,C  12)          121.7384         0.430893   
     76. A(C  12,C  11,H  29)          119.8353         0.357705   
     77. A(C  13,C  12,H  30)          120.0708         0.343326   
     78. A(C  11,C  12,H  30)          118.3566         0.358684   
     79. A(C  11,C  12,C  13)          121.5726         0.428519   
     80. A(C  12,C  13,C  14)          117.5932         0.408307   
     81. A(C   0,C  13,C  14)          119.3835         0.409236   
     82. A(C   0,C  13,C  12)          123.0233         0.410117   
     83. A(C  13,C  14,C  15)          120.8450         0.408353   
     84. A(C   3,C  14,C  15)          119.3397         0.411268   
     85. A(C   3,C  14,C  13)          119.8153         0.410338   
     86. A(C  10,C  15,C  14)          119.1467         0.411865   
     87. A(C   6,C  15,C  14)          120.8734         0.408870   
     88. A(C   6,C  15,C  10)          119.9799         0.411454   
     89. A(C  18,C  16,H  31)          115.7031         0.360175   
     90. A(C   0,C  16,H  31)          116.9819         0.338387   
     91. A(C   0,C  16,C  18)          127.3150         0.424617   
     92. A(C  19,C  17,H  32)          116.0975         0.359459   
     93. A(C   7,C  17,H  32)          117.6497         0.338327   
     94. A(C   7,C  17,C  19)          126.2527         0.424224   
     95. A(C  20,C  18,H  33)          115.5448         0.344938   
     96. A(C  16,C  18,H  33)          122.2500         0.359591   
     97. A(C  16,C  18,C  20)          122.2052         0.434178   
     98. A(N  21,C  19,H  34)          113.1631         0.348322   
     99. A(C  17,C  19,H  34)          120.9614         0.359029   
    100. A(C  17,C  19,N  21)          125.5864         0.438217   
    101. L(C  18,C  20,N  22,H  33, 2) 180.0018         0.481545   
    102. L(C  18,C  20,N  22,H  33, 1) 179.1190         0.481545   
    103. A(C  19,N  21,H  35)          112.1495         0.314706   
    104. A(H  35,N  21,H  36)           97.9625         0.256877   
    105. A(C  19,N  21,H  36)          116.2888         0.338443   
    106. D(C   2,C   1,C   0,C  13)      0.0854         0.022793   
    107. D(H  23,C   1,C   0,C  16)      0.1201         0.022793   
    108. D(C   2,C   1,C   0,C  16)   -179.9021         0.022793   
    109. D(H  23,C   1,C   0,C  13)   -179.8923         0.022793   
    110. D(C   3,C   2,C   1,H  23)    179.9851         0.028610   
    111. D(C   3,C   2,C   1,C   0)      0.0072         0.028610   
    112. D(H  24,C   2,C   1,H  23)     -0.0226         0.028610   
    113. D(H  24,C   2,C   1,C   0)    179.9995         0.028610   
    114. D(C  14,C   3,C   2,H  24)    179.9436         0.023112   
    115. D(C   4,C   3,C   2,C   1)    179.9228         0.023112   
    116. D(C   4,C   3,C   2,H  24)     -0.0696         0.023112   
    117. D(C  14,C   3,C   2,C   1)     -0.0640         0.023112   
    118. D(H  25,C   4,C   3,C   2)     -0.0546         0.019827   
    119. D(C   5,C   4,C   3,C   2)   -179.9820         0.019827   
    120. D(C   5,C   4,C   3,C  14)      0.0049         0.019827   
    121. D(H  25,C   4,C   3,C  14)    179.9322         0.019827   
    122. D(H  26,C   5,C   4,H  25)     -0.0870         0.032554   
    123. D(C   6,C   5,C   4,C   3)     -0.0310         0.032554   
    124. D(C   6,C   5,C   4,H  25)   -179.9572         0.032554   
    125. D(H  26,C   5,C   4,C   3)    179.8392         0.032554   
    126. D(C  15,C   6,C   5,H  26)   -179.8670         0.018984   
    127. D(C  15,C   6,C   5,C   4)      0.0014         0.018984   
    128. D(C   7,C   6,C   5,H  26)      0.0974         0.018984   
    129. D(C   7,C   6,C   5,C   4)    179.9658         0.018984   
    130. D(C  17,C   7,C   6,C  15)   -179.3021         0.019073   
    131. D(C  17,C   7,C   6,C   5)      0.7345         0.019073   
    132. D(C   8,C   7,C   6,C  15)      0.1096         0.019073   
    133. D(C   8,C   7,C   6,C   5)   -179.8537         0.019073   
    134. D(H  27,C   8,C   7,C   6)    179.5819         0.022230   
    135. D(C   9,C   8,C   7,C  17)    179.1306         0.022230   
    136. D(C   9,C   8,C   7,C   6)     -0.2832         0.022230   
    137. D(H  27,C   8,C   7,C  17)     -1.0043         0.022230   
    138. D(H  28,C   9,C   8,H  27)      0.2248         0.028460   
    139. D(H  28,C   9,C   8,C   7)   -179.9083         0.028460   
    140. D(C  10,C   9,C   8,H  27)   -179.6028         0.028460   
    141. D(C  10,C   9,C   8,C   7)      0.2642         0.028460   
    142. D(C  15,C  10,C   9,H  28)   -179.8895         0.023407   
    143. D(C  15,C  10,C   9,C   8)     -0.0607         0.023407   
    144. D(C  11,C  10,C   9,H  28)      0.0070         0.023407   
    145. D(C  11,C  10,C   9,C   8)    179.8357         0.023407   
    146. D(H  29,C  11,C  10,C  15)   -179.9500         0.020073   
    147. D(H  29,C  11,C  10,C   9)      0.1539         0.020073   
    148. D(C  12,C  11,C  10,C  15)      0.0521         0.020073   
    149. D(C  12,C  11,C  10,C   9)   -179.8440         0.020073   
    150. D(H  30,C  12,C  11,H  29)      0.0271         0.032508   
    151. D(H  30,C  12,C  11,C  10)   -179.9750         0.032508   
    152. D(C  13,C  12,C  11,H  29)    179.9909         0.032508   
    153. D(C  13,C  12,C  11,C  10)     -0.0112         0.032508   
    154. D(C  14,C  13,C  12,H  30)    179.8994         0.018843   
    155. D(C   0,C  13,C  12,H  30)     -0.0544         0.018843   
    156. D(C   0,C  13,C  12,C  11)    179.9824         0.018843   
    157. D(C  14,C  13,C   0,C  16)    179.8683         0.019346   
    158. D(C  14,C  13,C   0,C   1)     -0.1192         0.019346   
    159. D(C  14,C  13,C  12,C  11)     -0.0638         0.018843   
    160. D(C  12,C  13,C   0,C  16)     -0.1787         0.019346   
    161. D(C  12,C  13,C   0,C   1)    179.8338         0.019346   
    162. D(C   3,C  14,C  13,C  12)   -179.8910         0.018382   
    163. D(C   3,C  14,C  13,C   0)      0.0645         0.018382   
    164. D(C  15,C  14,C   3,C   4)      0.0497         0.019959   
    165. D(C  15,C  14,C   3,C   2)   -179.9631         0.019959   
    166. D(C  13,C  14,C   3,C   4)   -179.9601         0.019959   
    167. D(C  15,C  14,C  13,C   0)   -179.9455         0.018382   
    168. D(C  13,C  14,C   3,C   2)      0.0271         0.019959   
    169. D(C  15,C  14,C  13,C  12)      0.0990         0.018382   
    170. D(C  10,C  15,C  14,C  13)     -0.0603         0.018868   
    171. D(C   6,C  15,C  14,C  13)    179.9301         0.018868   
    172. D(C   6,C  15,C  14,C   3)     -0.0799         0.018868   
    173. D(C  14,C  15,C  10,C  11)     -0.0156         0.020299   
    174. D(C  14,C  15,C  10,C   9)    179.8841         0.020299   
    175. D(C   6,C  15,C  10,C  11)    179.9939         0.020299   
    176. D(C   6,C  15,C  10,C   9)     -0.1064         0.020299   
    177. D(C  14,C  15,C   6,C   7)   -179.9111         0.018652   
    178. D(C  14,C  15,C   6,C   5)      0.0541         0.018652   
    179. D(C  10,C  15,C  14,C   3)    179.9298         0.018868   
    180. D(C  10,C  15,C   6,C   7)      0.0792         0.018652   
    181. D(C  10,C  15,C   6,C   5)   -179.9556         0.018652   
    182. D(H  31,C  16,C   0,C  13)      0.1391         0.015990   
    183. D(H  31,C  16,C   0,C   1)   -179.8737         0.015990   
    184. D(C  18,C  16,C   0,C  13)   -179.8440         0.015990   
    185. D(C  18,C  16,C   0,C   1)      0.1432         0.015990   
    186. D(H  32,C  17,C   7,C   8)    179.9626         0.016078   
    187. D(H  32,C  17,C   7,C   6)     -0.6467         0.016078   
    188. D(C  19,C  17,C   7,C   8)      0.1017         0.016078   
    189. D(C  19,C  17,C   7,C   6)    179.4925         0.016078   
    190. D(H  33,C  18,C  16,H  31)    179.9838         0.034686   
    191. D(H  33,C  18,C  16,C   0)     -0.0329         0.034686   
    192. D(C  20,C  18,C  16,H  31)      0.0090         0.034686   
    193. D(C  20,C  18,C  16,C   0)    179.9923         0.034686   
    194. D(H  34,C  19,C  17,H  32)    179.7442         0.034097   
    195. D(H  34,C  19,C  17,C   7)     -0.3930         0.034097   
    196. D(N  21,C  19,C  17,H  32)     -6.8637         0.034097   
    197. D(N  21,C  19,C  17,C   7)    172.9990         0.034097   
    198. D(H  36,N  21,C  19,H  34)   -153.6183         0.029405   
    199. D(H  36,N  21,C  19,C  17)     32.5432         0.029405   
    200. D(H  35,N  21,C  19,H  34)    -42.0322         0.029405   
    201. D(H  35,N  21,C  19,C  17)    144.1293         0.029405   
    -----------------------------------------------------------------

Number of atoms                         .... 37
Number of degrees of freedom            .... 201

         *************************************************************
         *                GEOMETRY OPTIMIZATION CYCLE   1            *
         *************************************************************
---------------------------------
CARTESIAN COORDINATES (ANGSTROEM)
---------------------------------
  C     -7.228155    3.035785   -0.283960
  C     -5.971928    3.680617   -0.284338
  C     -4.785316    2.977870   -0.183455
  C     -4.786514    1.571783   -0.075141
  C     -3.572392    0.822771    0.028747
  C     -3.582064   -0.539618    0.133003
  C     -4.803258   -1.295232    0.145055
  C     -4.823718   -2.726475    0.253467
  C     -6.087325   -3.363989    0.251711
  C     -7.274096   -2.659421    0.156389
  C     -7.282622   -1.254901    0.049548
  C     -8.495321   -0.506578   -0.053486
  C     -8.492498    0.855855   -0.159878
  C     -7.267398    1.606992   -0.173355
  C     -6.033008    0.872058   -0.068902
  C     -6.035673   -0.560563    0.042211
  C     -8.457037    3.814742   -0.394545
  C     -3.591550   -3.497291    0.374274
  C     -8.569518    5.163746   -0.507940
  C     -3.496662   -4.849423    0.492188
  C     -9.833447    5.814771   -0.609706
  N     -2.333507   -5.571596    0.469422
  N    -10.857094    6.362132   -0.693725
  H     -5.928074    4.768302   -0.366184
  H     -3.830752    3.510841   -0.187068
  H     -2.623204    1.365695    0.022079
  H     -2.626345   -1.057752    0.206588
  H     -6.140596   -4.451974    0.325657
  H     -8.226691   -3.197052    0.160689
  H     -9.444681   -1.049880   -0.045922
  H     -9.449552    1.371014   -0.234877
  H     -9.396788    3.260582   -0.386461
  H     -2.647644   -2.948149    0.368714
  H     -7.696838    5.822560   -0.526836
  H     -4.392509   -5.476990    0.510627
  H     -2.370078   -6.524207    1.225634
  H     -1.447795   -5.079098    0.888239

----------------------------
CARTESIAN COORDINATES (A.U.)
----------------------------
  NO LB      ZA    FRAG     MASS         X           Y           Z
   0 C     6.0000    0    12.011  -13.659233    5.736802   -0.536607
   1 C     6.0000    0    12.011  -11.285308    6.955358   -0.537321
   2 C     6.0000    0    12.011   -9.042937    5.627359   -0.346680
   3 C     6.0000    0    12.011   -9.045201    2.970239   -0.141996
   4 C     6.0000    0    12.011   -6.750843    1.554812    0.054324
   5 C     6.0000    0    12.011   -6.769120   -1.019730    0.251339
   6 C     6.0000    0    12.011   -9.076842   -2.447634    0.274114
   7 C     6.0000    0    12.011   -9.115506   -5.152291    0.478983
   8 C     6.0000    0    12.011  -11.503377   -6.357018    0.475665
   9 C     6.0000    0    12.011  -13.746049   -5.025577    0.295532
  10 C     6.0000    0    12.011  -13.762161   -2.371419    0.093632
  11 C     6.0000    0    12.011  -16.053830   -0.957294   -0.101074
  12 C     6.0000    0    12.011  -16.048495    1.617332   -0.302126
  13 C     6.0000    0    12.011  -13.733392    3.036775   -0.327593
  14 C     6.0000    0    12.011  -11.400733    1.647951   -0.130206
  15 C     6.0000    0    12.011  -11.405769   -1.059311    0.079767
  16 C     6.0000    0    12.011  -15.981484    7.208818   -0.745582
  17 C     6.0000    0    12.011   -6.787046   -6.608922    0.707275
  18 C     6.0000    0    12.011  -16.194042    9.758066   -0.959867
  19 C     6.0000    0    12.011   -6.607734   -9.164081    0.930101
  20 C     6.0000    0    12.011  -18.582522   10.988325   -1.152177
  21 N     7.0000    0    14.007   -4.409689  -10.528791    0.887079
  22 N     7.0000    0    14.007  -20.516934   12.022687   -1.310950
  23 H     1.0000    0     1.008  -11.202436    9.010785   -0.691987
  24 H     1.0000    0     1.008   -7.239072    6.634528   -0.353507
  25 H     1.0000    0     1.008   -4.957137    2.580790    0.041723
  26 H     1.0000    0     1.008   -4.963073   -1.998862    0.390395
  27 H     1.0000    0     1.008  -11.604045   -8.413012    0.615403
  28 H     1.0000    0     1.008  -15.546193   -6.041553    0.303658
  29 H     1.0000    0     1.008  -17.847861   -1.983986   -0.086780
  30 H     1.0000    0     1.008  -17.857065    2.590841   -0.443853
  31 H     1.0000    0     1.008  -17.757356    6.161607   -0.730305
  32 H     1.0000    0     1.008   -5.003322   -5.571194    0.696768
  33 H     1.0000    0     1.008  -14.544916   11.003044   -0.995576
  34 H     1.0000    0     1.008   -8.300639  -10.350011    0.964945
  35 H     1.0000    0     1.008   -4.478798  -12.328964    2.316113
  36 H     1.0000    0     1.008   -2.735936   -9.598104    1.678528

--------------------------------
INTERNAL COORDINATES (ANGSTROEM)
--------------------------------
 C      0   0   0     0.000000000000     0.00000000     0.00000000
 C      1   0   0     1.412060454314     0.00000000     0.00000000
 C      2   1   0     1.382779362097   122.09550583     0.00000000
 C      3   2   1     1.410253172083   120.76956142     0.00000000
 C      4   3   2     1.430350979156   121.80071749   179.92281653
 C      5   4   3     1.366406472628   121.44298194   180.01803089
 C      6   5   4     1.436110216291   122.09101065   359.96896070
 C      7   6   5     1.435488870870   122.50347489   179.96579895
 C      8   7   6     1.415319693278   117.49927051   180.14625027
 C      9   8   7     1.383447778830   122.45018063   359.71676125
 C     10   9   8     1.408603607250   121.21333854     0.26420831
 C     11  10   9     1.428720470241   122.19893720   179.83574345
 C     12  11  10     1.366583662452   121.73839415   180.15600680
 C      1   2   3     1.433604867431   118.65281278     0.08541082
 C      4   3   2     1.429475880448   119.28324986   359.93602321
 C     11  10   9     1.427249417031   118.69704084   359.93926011
 C      1   2   3     1.459162095176   120.36041307   180.09787494
 C      8   7   6     1.458420247161   121.41135524     0.73447783
 C     17   1   2     1.358426366573   127.31501697     0.14321886
 C     18   8   7     1.360576491552   126.25274233   179.49246295
 C     19  17   1     1.425379383330   122.20521653   179.99228092
 N     20  18   8     1.369299706679   125.58644603   172.99899475
 N     21  19  17     1.163836946179   179.11904241   179.92030189
 H      2   1   3     1.091641241552   119.39084585   180.02224970
 H      3   2   1     1.093281103242   120.08342826   179.99949066
 H      5   4   3     1.093512135892   118.44806601   359.94539931
 H      6   5   4     1.089622136863   118.23331821   179.83919244
 H      9   8   7     1.091795388606   119.49476374   179.58187064
 H     10   9   8     1.093847711606   119.76698911   180.09172065
 H     12  11  10     1.093854966118   118.42632301     0.15393050
 H     13  12  11     1.089479694257   118.35656025   180.02501037
 H     17   1   2     1.091004399009   116.98186897   180.12632490
 H     18   8   7     1.092037722151   117.64966850   359.35330940
 H     19  17   1     1.093601082576   122.25001392   359.96705352
 H     20  18   8     1.093947980308   120.96138065   359.60696735
 H     22  20  18     1.216824450899   112.14945948   144.12928129
 H     22  20  18     1.096561765901   116.28875440    32.54322237

---------------------------
INTERNAL COORDINATES (A.U.)
---------------------------
 C      0   0   0     0.000000000000     0.00000000     0.00000000
 C      1   0   0     2.668407543194     0.00000000     0.00000000
 C      2   1   0     2.613074298002   122.09550583     0.00000000
 C      3   2   1     2.664992274730   120.76956142     0.00000000
 C      4   3   2     2.702971625991   121.80071749   179.92281653
 C      5   4   3     2.582134020885   121.44298194   180.01803089
 C      6   5   4     2.713855006917   122.09101065   359.96896070
 C      7   6   5     2.712680834237   122.50347489   179.96579895
 C      8   7   6     2.674566612241   117.49927051   180.14625027
 C      9   8   7     2.614337422570   122.45018063   359.71676125
 C     10   9   8     2.661875048956   121.21333854     0.26420831
 C     11  10   9     2.699890410683   122.19893720   179.83574345
 C     12  11  10     2.582468861126   121.73839415   180.15600680
 C      1   2   3     2.709120583702   118.65281278     0.08541082
 C      4   3   2     2.701317929092   119.28324986   359.93602321
 C     11  10   9     2.697110522986   118.69704084   359.93926011
 C      1   2   3     2.757416744881   120.36041307   180.09787494
 C      8   7   6     2.756014855300   121.41135524     0.73447783
 C     17   1   2     2.567053805922   127.31501697     0.14321886
 C     18   8   7     2.571116953285   126.25274233   179.49246295
 C     19  17   1     2.693576671431   122.20521653   179.99228092
 N     20  18   8     2.587601440881   125.58644603   172.99899475
 N     21  19  17     2.199333092817   179.11904241   179.92030189
 H      2   1   3     2.062902983027   119.39084585   180.02224970
 H      3   2   1     2.066001872519   120.08342826   179.99949066
 H      5   4   3     2.066438460956   118.44806601   359.94539931
 H      6   5   4     2.059087428129   118.23331821   179.83919244
 H      9   8   7     2.063194278744   119.49476374   179.58187064
 H     10   9   8     2.067072607152   119.76698911   180.09172065
 H     12  11  10     2.067086316192   118.42632301     0.15393050
 H     13  12  11     2.058818250614   118.35656025   180.02501037
 H     17   1   2     2.061699525030   116.98186897   180.12632490
 H     18   8   7     2.063652222776   117.64966850   359.35330940
 H     19  17   1     2.066606545829   122.25001392   359.96705352
 H     20  18   8     2.067262087538   120.96138065   359.60696735
 H     22  20  18     2.299464965258   112.14945948   144.12928129
 H     22  20  18     2.072201426483   116.28875440    32.54322237

---------------------
BASIS SET INFORMATION
---------------------
There are 3 groups of distinct atoms

 Group   1 Type C   : 7s4p1d contracted to 3s2p1d pattern {511/31/1}
 Group   2 Type N   : 7s4p1d contracted to 3s2p1d pattern {511/31/1}
 Group   3 Type H   : 4s1p contracted to 2s1p pattern {31/1}

Atom   0C    basis set group =>   1
Atom   1C    basis set group =>   1
Atom   2C    basis set group =>   1
Atom   3C    basis set group =>   1
Atom   4C    basis set group =>   1
Atom   5C    basis set group =>   1
Atom   6C    basis set group =>   1
Atom   7C    basis set group =>   1
Atom   8C    basis set group =>   1
Atom   9C    basis set group =>   1
Atom  10C    basis set group =>   1
Atom  11C    basis set group =>   1
Atom  12C    basis set group =>   1
Atom  13C    basis set group =>   1
Atom  14C    basis set group =>   1
Atom  15C    basis set group =>   1
Atom  16C    basis set group =>   1
Atom  17C    basis set group =>   1
Atom  18C    basis set group =>   1
Atom  19C    basis set group =>   1
Atom  20C    basis set group =>   1
Atom  21N    basis set group =>   2
Atom  22N    basis set group =>   2
Atom  23H    basis set group =>   3
Atom  24H    basis set group =>   3
Atom  25H    basis set group =>   3
Atom  26H    basis set group =>   3
Atom  27H    basis set group =>   3
Atom  28H    basis set group =>   3
Atom  29H    basis set group =>   3
Atom  30H    basis set group =>   3
Atom  31H    basis set group =>   3
Atom  32H    basis set group =>   3
Atom  33H    basis set group =>   3
Atom  34H    basis set group =>   3
Atom  35H    basis set group =>   3
Atom  36H    basis set group =>   3
---------------------------------
AUXILIARY/J BASIS SET INFORMATION
---------------------------------
There are 3 groups of distinct atoms

 Group   1 Type C   : 12s5p4d2f1g contracted to 6s4p3d1f1g pattern {711111/2111/211/2/1}
 Group   2 Type N   : 12s5p4d2f1g contracted to 6s4p3d1f1g pattern {711111/2111/211/2/1}
 Group   3 Type H   : 5s2p1d contracted to 3s1p1d pattern {311/2/1}

Atom   0C    basis set group =>   1
Atom   1C    basis set group =>   1
Atom   2C    basis set group =>   1
Atom   3C    basis set group =>   1
Atom   4C    basis set group =>   1
Atom   5C    basis set group =>   1
Atom   6C    basis set group =>   1
Atom   7C    basis set group =>   1
Atom   8C    basis set group =>   1
Atom   9C    basis set group =>   1
Atom  10C    basis set group =>   1
Atom  11C    basis set group =>   1
Atom  12C    basis set group =>   1
Atom  13C    basis set group =>   1
Atom  14C    basis set group =>   1
Atom  15C    basis set group =>   1
Atom  16C    basis set group =>   1
Atom  17C    basis set group =>   1
Atom  18C    basis set group =>   1
Atom  19C    basis set group =>   1
Atom  20C    basis set group =>   1
Atom  21N    basis set group =>   2
Atom  22N    basis set group =>   2
Atom  23H    basis set group =>   3
Atom  24H    basis set group =>   3
Atom  25H    basis set group =>   3
Atom  26H    basis set group =>   3
Atom  27H    basis set group =>   3
Atom  28H    basis set group =>   3
Atom  29H    basis set group =>   3
Atom  30H    basis set group =>   3
Atom  31H    basis set group =>   3
Atom  32H    basis set group =>   3
Atom  33H    basis set group =>   3
Atom  34H    basis set group =>   3
Atom  35H    basis set group =>   3
Atom  36H    basis set group =>   3


           ************************************************************
           *        Program running with 8 parallel MPI-processes     *
           *              working on a common directory               *
           ************************************************************
------------------------------------------------------------------------------
                           ORCA GTO INTEGRAL CALCULATION
                           -- RI-GTO INTEGRALS CHOSEN --
------------------------------------------------------------------------------
------------------------------------------------------------------------------
                   ___                                                        
                  /   \      - P O W E R E D   B Y -                         
                 /     \                                                     
                 |  |  |   _    _      __       _____    __    __             
                 |  |  |  | |  | |    /  \     |  _  \  |  |  /  |          
                  \  \/   | |  | |   /    \    | | | |  |  | /  /          
                 / \  \   | |__| |  /  /\  \   | |_| |  |  |/  /          
                |  |  |   |  __  | /  /__\  \  |    /   |      \           
                |  |  |   | |  | | |   __   |  |    \   |  |\   \          
                \     /   | |  | | |  |  |  |  | |\  \  |  | \   \       
                 \___/    |_|  |_| |__|  |__|  |_| \__\ |__|  \__/        
                                                                              
                      - O R C A' S   B I G   F R I E N D -                    
                                      &                                       
                       - I N T E G R A L  F E E D E R -                       
                                                                              
 v1 FN, 2020, v2 2021                                                         
------------------------------------------------------------------------------


Reading SHARK input file NC_NH2_3.SHARKINP.tmp ... ok
----------------------
SHARK INTEGRAL PACKAGE
----------------------

Number of atoms                             ...     37
Number of basis functions                   ...    392
Number of shells                            ...    180
Maximum angular momentum                    ...      2
Integral batch strategy                     ... SHARK/LIBINT Hybrid
RI-J (if used) integral strategy            ... SPLIT-RIJ (Revised 2003 algorithm where possible)
Printlevel                                  ...      1
Contraction scheme used                     ... SEGMENTED contraction
Coulomb Range Separation                    ... NOT USED
Exchange Range Separation                   ... NOT USED
Finite Nucleus Model                        ... NOT USED
Auxiliary Coulomb fitting basis             ... AVAILABLE
   # of basis functions in Aux-J            ...   1281
   # of shells in Aux-J                     ...    415
   Maximum angular momentum in Aux-J        ...      4
Auxiliary J/K fitting basis                 ... NOT available
Auxiliary Correlation fitting basis         ... NOT available
Auxiliary 'external' fitting basis          ... NOT available
Integral threshold                          ...     1.000000e-12
Primitive cut-off                           ...     1.000000e-14
Primitive pair pre-selection threshold      ...     1.000000e-14

Calculating pre-screening integrals         ... done (  0.0 sec) Dimension = 180
Organizing shell pair data                  ... done (  0.6 sec)
Shell pair information
Total number of shell pairs                 ...     16290
Shell pairs after pre-screening             ...     12136
Total number of primitive shell pairs       ...     60372
Primitive shell pairs kept                  ...     29226
          la=0 lb=0:   3567 shell pairs
          la=1 lb=0:   4448 shell pairs
          la=1 lb=1:   1426 shell pairs
          la=2 lb=0:   1536 shell pairs
          la=2 lb=1:    974 shell pairs
          la=2 lb=2:    185 shell pairs

Calculating one electron integrals          ... done (  0.0 sec)
Calculating RI/J V-Matrix + Cholesky decomp.... done (  2.2 sec)
Calculating Nuclear repulsion               ... done (  0.0 sec) ENN=   1620.950572065222 Eh

SHARK setup successfully completed in   3.8 seconds

Maximum memory used throughout the entire GTOINT-calculation: 21.8 MB


           ************************************************************
           *        Program running with 8 parallel MPI-processes     *
           *              working on a common directory               *
           ************************************************************
-------------------------------------------------------------------------------
                                 ORCA SCF
-------------------------------------------------------------------------------

------------
SCF SETTINGS
------------
Hamiltonian:
 Density Functional     Method          .... DFT(GTOs)
 Exchange Functional    Exchange        .... B88
   X-Alpha parameter    XAlpha          ....  0.666667
   Becke's b parameter  XBeta           ....  0.004200
 Correlation Functional Correlation     .... LYP
 LDA part of GGA corr.  LDAOpt          .... VWN-5
 Gradients option       PostSCFGGA      .... off
 Hybrid DFT is turned on
   Fraction HF Exchange ScalHFX         ....  0.200000
   Scaling of DF-GGA-X  ScalDFX         ....  0.720000
   Scaling of DF-GGA-C  ScalDFC         ....  0.810000
   Scaling of DF-LDA-C  ScalLDAC        ....  1.000000
   Perturbative correction              ....  0.000000
   Density functional embedding theory  .... OFF
   NL short-range parameter             ....  4.800000
 RI-approximation to the Coulomb term is turned on
   Number of AuxJ basis functions       .... 1281
   RIJ-COSX (HFX calculated with COS-X)).... on


General Settings:
 Integral files         IntName         .... NC_NH2_3
 Hartree-Fock type      HFTyp           .... RHF
 Total Charge           Charge          ....    0
 Multiplicity           Mult            ....    1
 Number of Electrons    NEL             ....  154
 Basis Dimension        Dim             ....  392
 Nuclear Repulsion      ENuc            ....   1620.9505720652 Eh

Convergence Acceleration:
 DIIS                   CNVDIIS         .... on
   Start iteration      DIISMaxIt       ....     0
   Startup error        DIISStart       ....  0.200000
   # of expansion vecs  DIISMaxEq       ....     5
   Bias factor          DIISBfac        ....   1.050
   Max. coefficient     DIISMaxC        ....  10.000
 Trust-Rad. Augm. Hess. CNVTRAH         .... auto
   Auto Start mean grad. ratio tolernc. ....  1.125000
   Auto Start start iteration           ....    20
   Auto Start num. interpolation iter.  ....    10
   Max. Number of Micro iterations      ....    16
   Max. Number of Macro iterations      .... Maxiter - #DIIS iter
   Number of Davidson start vectors     ....     2
   Converg. threshold I  (grad. norm)   ....   2.000e-06
   Converg. threshold II (energy diff.) ....   1.000e-09
   Grad. Scal. Fac. for Micro threshold ....   0.100
   Minimum threshold for Micro iter.    ....   0.010
   NR start threshold (gradient norm)   ....   0.001
   Initial trust radius                 ....   0.400
   Minimum AH scaling param. (alpha)    ....   1.000
   Maximum AH scaling param. (alpha)    .... 1000.000
   Orbital update algorithm             .... Taylor
   White noise on init. David. guess    .... on
   Maximum white noise                  ....   0.010
   Quad. conv. algorithm                .... NR
 SOSCF                  CNVSOSCF        .... on
   Start iteration      SOSCFMaxIt      ....   150
   Startup grad/error   SOSCFStart      ....  0.001000
 Level Shifting         CNVShift        .... on
   Level shift para.    LevelShift      ....    0.2500
   Turn off err/grad.   ShiftErr        ....    0.0000
 Zerner damping         CNVZerner       .... off
 Static damping         CNVDamp         .... on
   Fraction old density DampFac         ....    0.8500
   Max. Damping (<1)    DampMax         ....    0.9800
   Min. Damping (>=0)   DampMin         ....    0.0000
   Turn off err/grad.   DampErr         ....    0.0300
 Fernandez-Rico         CNVRico         .... off

SCF Procedure:
 Maximum # iterations   MaxIter         ....   125
 SCF integral mode      SCFMode         .... Direct
   Integral package                     .... SHARK and LIBINT hybrid scheme
 Reset frequency        DirectResetFreq ....    20
 Integral Threshold     Thresh          ....  1.000e-12 Eh
 Primitive CutOff       TCut            ....  1.000e-14 Eh

Convergence Tolerance:
 Convergence Check Mode ConvCheckMode   .... Total+1el-Energy
 Convergence forced     ConvForced      .... 0
 Energy Change          TolE            ....  1.000e-09 Eh
 1-El. energy change                    ....  1.000e-06 Eh
 Orbital Gradient       TolG            ....  2.000e-06
 Orbital Rotation angle TolX            ....  2.000e-06
 DIIS Error             TolErr          ....  1.000e-08


Diagonalization of the overlap matrix:
Smallest eigenvalue                        ... 1.989e-04
Time for diagonalization                   ...    0.021 sec
Threshold for overlap eigenvalues          ... 1.000e-08
Number of eigenvalues below threshold      ... 0
Time for construction of square roots      ...    0.019 sec
Total time needed                          ...    0.041 sec

Time for model grid setup =    0.240 sec

------------------------------
INITIAL GUESS: MODEL POTENTIAL
------------------------------
Loading Hartree-Fock densities                     ... done
Calculating cut-offs                               ... done
Initializing the effective Hamiltonian             ... done
Setting up the integral package (SHARK)            ... done
Starting the Coulomb interaction                   ... done (   0.2 sec)
Reading the grid                                   ... done
Mapping shells                                     ... done
Starting the XC term evaluation                    ... done (   0.1 sec)
  promolecular density results
     # of electrons  =    153.989981568
     EX              =   -125.180440305
     EC              =     -5.206113088
     EX+EC           =   -130.386553393
Transforming the Hamiltonian                       ... done (   0.0 sec)
Diagonalizing the Hamiltonian                      ... done (   0.0 sec)
Back transforming the eigenvectors                 ... done (   0.0 sec)
Now organizing SCF variables                       ... done
                      ------------------
                      INITIAL GUESS DONE (   0.5 sec)
                      ------------------
-------------------
DFT GRID GENERATION
-------------------

General Integration Accuracy     IntAcc      ... 4.959
Radial Grid Type                 RadialGrid  ... OptM3 with GC (2021)
Angular Grid (max. ang.)         AngularGrid ... 6 (Lebedev-590)
Angular grid pruning method      GridPruning ... 4 (adaptive)
Weight generation scheme         WeightScheme... Becke
Basis function cutoff            BFCut       ... 1.0000e-12
Integration weight cutoff        WCut        ... 1.0000e-14
Angular grids for H and He will be reduced by one unit
Partially contracted basis set               ... off
Rotationally invariant grid construction     ... off

Total number of grid points                  ...   445241
Total number of batches                      ...     6977
Average number of points per batch           ...       63
Average number of grid points per atom       ...    12034
Time for grid setup =    7.310 sec

--------------------
COSX GRID GENERATION
--------------------

GRIDX 1
-------
General Integration Accuracy     IntAcc      ... 4.020
Radial Grid Type                 RadialGrid  ... OptM3 with GC (2021)
Angular Grid (max. ang.)         AngularGrid ... 2 (Lebedev-110)
Angular grid pruning method      GridPruning ... 4 (adaptive)
Weight generation scheme         WeightScheme... Becke
Basis function cutoff            BFCut       ... 1.0000e-12
Integration weight cutoff        WCut        ... 1.0000e-14
Angular grids for H and He will be reduced by one unit
Partially contracted basis set               ... on
Rotationally invariant grid construction     ... off

Total number of grid points                  ...    50733
Total number of batches                      ...      812
Average number of points per batch           ...       62
Average number of grid points per atom       ...     1371
UseSFitting                                  ... on

GRIDX 2
-------
General Integration Accuracy     IntAcc      ... 4.338
Radial Grid Type                 RadialGrid  ... OptM3 with GC (2021)
Angular Grid (max. ang.)         AngularGrid ... 3 (Lebedev-194)
Angular grid pruning method      GridPruning ... 4 (adaptive)
Weight generation scheme         WeightScheme... Becke
Basis function cutoff            BFCut       ... 1.0000e-12
Integration weight cutoff        WCut        ... 1.0000e-14
Angular grids for H and He will be reduced by one unit
Partially contracted basis set               ... on
Rotationally invariant grid construction     ... off

Total number of grid points                  ...   111408
Total number of batches                      ...     1758
Average number of points per batch           ...       63
Average number of grid points per atom       ...     3011
UseSFitting                                  ... on

GRIDX 3
-------
General Integration Accuracy     IntAcc      ... 4.871
Radial Grid Type                 RadialGrid  ... OptM3 with GC (2021)
Angular Grid (max. ang.)         AngularGrid ... 4 (Lebedev-302)
Angular grid pruning method      GridPruning ... 4 (adaptive)
Weight generation scheme         WeightScheme... Becke
Basis function cutoff            BFCut       ... 1.0000e-12
Integration weight cutoff        WCut        ... 1.0000e-14
Angular grids for H and He will be reduced by one unit
Partially contracted basis set               ... on
Rotationally invariant grid construction     ... off

Total number of grid points                  ...   206222
Total number of batches                      ...     3242
Average number of points per batch           ...       63
Average number of grid points per atom       ...     5574
UseSFitting                                  ... on

Time for X-Grid setup             =    4.500 sec

--------------
SCF ITERATIONS
--------------
ITER       Energy         Delta-E        Max-DP      RMS-DP      [F,P]     Damp
               ***  Starting incremental Fock matrix formation  ***
  0   -916.4765777383   0.000000000000 0.04521191  0.00101962  0.2288115 0.8500
  1   -916.5894370353  -0.112859296940 0.03954091  0.00091996  0.1556620 0.8500
                               ***Turning on DIIS***
  2   -916.6645945376  -0.075157502351 0.02800535  0.00072549  0.0922669 0.8500
  3   -916.7133398757  -0.048745338083 0.01368462  0.00049967  0.0589205 0.8500
  4   -916.7495645856  -0.036224709873 0.01182694  0.00037987  0.0437203 0.8500
  5   -916.7774631239  -0.027898538353 0.01040513  0.00030764  0.0367006 0.8500
  6   -916.8000176485  -0.022554524537 0.00913122  0.00025717  0.0315709 0.8500
  7   -916.8186631058  -0.018645457344 0.05336053  0.00145714  0.0264326 0.0000
  8   -916.9175447671  -0.098881661245 0.01364969  0.00011097  0.0163881 0.0000
  9   -916.9176076840  -0.000062916971 0.00545809  0.00004500  0.0154774 0.0000
 10   -916.9178685021  -0.000260818018 0.00125042  0.00001537  0.0043468 0.0000
 11   -916.9178916602  -0.000023158195 0.00048660  0.00000633  0.0013510 0.0000
                      *** Initiating the SOSCF procedure ***
                           *** Shutting down DIIS ***
                      *** Re-Reading the Fockian *** 
                      *** Removing any level shift *** 
ITER      Energy       Delta-E        Grad      Rot      Max-DP    RMS-DP
 12   -916.91789410  -0.0000024355  0.000079  0.000079  0.000155  0.000003
               *** Restarting incremental Fock matrix formation ***
 13   -916.91787371   0.0000203880  0.000052  0.000367  0.000140  0.000004
 14   -916.91787388  -0.0000001761  0.000028  0.000252  0.000100  0.000002
 15   -916.91787383   0.0000000522  0.000067  0.000151  0.000074  0.000001
 16   -916.91787390  -0.0000000721  0.000008  0.000023  0.000027  0.000000
 17   -916.91787390   0.0000000025  0.000013  0.000014  0.000019  0.000000
 18   -916.91787391  -0.0000000045  0.000002  0.000006  0.000008  0.000000
 19   -916.91787391   0.0000000005  0.000002  0.000004  0.000006  0.000000
                  ***Gradient check signals convergence***
              ***Rediagonalizing the Fockian in SOSCF/NRSCF***

               *****************************************************
               *                     SUCCESS                       *
               *           SCF CONVERGED AFTER  20 CYCLES          *
               *****************************************************

Old exchange energy                            =    -25.334056850 Eh
New exchange energy                            =    -25.334049216 Eh
Exchange energy change after final integration =      0.000007634 Eh
Total energy after final integration           =   -916.917866272 Eh
Final COS-X integration done in                =    12.854 sec

----------------
TOTAL SCF ENERGY
----------------

Total Energy       :         -916.91786627 Eh          -24950.60361 eV

Components:
Nuclear Repulsion  :         1620.95057207 Eh           44108.30749 eV
Electronic Energy  :        -2537.86843834 Eh          -69058.91109 eV
One Electron Energy:        -4458.14856707 Eh         -121312.38991 eV
Two Electron Energy:         1920.28012873 Eh           52253.47882 eV
Max COSX asymmetry :            0.00000048 Eh               0.00001 eV

Virial components:
Potential Energy   :        -1823.93016044 Eh          -49631.66289 eV
Kinetic Energy     :          907.01229417 Eh           24681.05929 eV
Virial Ratio       :            2.01092110


DFT components:
N(Alpha)           :       76.999996406700 electrons
N(Beta)            :       76.999996406700 electrons
N(Total)           :      153.999992813399 electrons
E(X)               :     -100.667186060379 Eh       
E(C)               :       -6.134536205866 Eh       
E(XC)              :     -106.801722266245 Eh       
DFET-embed. en.    :        0.000000000000 Eh       

---------------
SCF CONVERGENCE
---------------

  Last Energy change         ...   -6.3517e-10  Tolerance :   1.0000e-09
  Last MAX-Density change    ...    4.8850e-15  Tolerance :   1.0000e-08
  Last RMS-Density change    ...    4.2748e-17  Tolerance :   1.0000e-09
  Last Orbital Gradient      ...    2.5248e-07  Tolerance :   2.0000e-06
  Last Orbital Rotation      ...    9.4233e-07  Tolerance :   2.0000e-06

             **** THE GBW FILE WAS UPDATED (NC_NH2_3.gbw) ****
             **** DENSITY NC_NH2_3.scfp WAS UPDATED ****
             **** ENERGY FILE WAS UPDATED (NC_NH2_3.en.tmp) ****
             **** THE GBW FILE WAS UPDATED (NC_NH2_3.gbw) ****
             **** DENSITY NC_NH2_3.scfp WAS UPDATED ****
----------------
ORBITAL ENERGIES
----------------

  NO   OCC          E(Eh)            E(eV) 
   0   2.0000     -14.376089      -391.1933 
   1   2.0000     -14.311554      -389.4372 
   2   2.0000     -10.237870      -278.5866 
   3   2.0000     -10.220958      -278.1264 
   4   2.0000     -10.218885      -278.0700 
   5   2.0000     -10.213613      -277.9265 
   6   2.0000     -10.211603      -277.8719 
   7   2.0000     -10.211182      -277.8604 
   8   2.0000     -10.208671      -277.7921 
   9   2.0000     -10.205793      -277.7137 
  10   2.0000     -10.205384      -277.7026 
  11   2.0000     -10.204252      -277.6718 
  12   2.0000     -10.203634      -277.6550 
  13   2.0000     -10.200345      -277.5655 
  14   2.0000     -10.199159      -277.5332 
  15   2.0000     -10.198352      -277.5113 
  16   2.0000     -10.198072      -277.5036 
  17   2.0000     -10.197312      -277.4830 
  18   2.0000     -10.196883      -277.4713 
  19   2.0000     -10.196605      -277.4637 
  20   2.0000     -10.195590      -277.4361 
  21   2.0000     -10.194550      -277.4078 
  22   2.0000     -10.188703      -277.2487 
  23   2.0000      -0.909944       -24.7608 
  24   2.0000      -0.890899       -24.2426 
  25   2.0000      -0.881187       -23.9783 
  26   2.0000      -0.855429       -23.2774 
  27   2.0000      -0.831143       -22.6166 
  28   2.0000      -0.816005       -22.2046 
  29   2.0000      -0.788079       -21.4447 
  30   2.0000      -0.774098       -21.0643 
  31   2.0000      -0.747451       -20.3392 
  32   2.0000      -0.738594       -20.0982 
  33   2.0000      -0.726605       -19.7719 
  34   2.0000      -0.699170       -19.0254 
  35   2.0000      -0.655057       -17.8250 
  36   2.0000      -0.635550       -17.2942 
  37   2.0000      -0.629395       -17.1267 
  38   2.0000      -0.616547       -16.7771 
  39   2.0000      -0.597784       -16.2665 
  40   2.0000      -0.584335       -15.9006 
  41   2.0000      -0.548627       -14.9289 
  42   2.0000      -0.532512       -14.4904 
  43   2.0000      -0.530270       -14.4294 
  44   2.0000      -0.517563       -14.0836 
  45   2.0000      -0.508186       -13.8284 
  46   2.0000      -0.498805       -13.5732 
  47   2.0000      -0.495223       -13.4757 
  48   2.0000      -0.469819       -12.7844 
  49   2.0000      -0.458325       -12.4717 
  50   2.0000      -0.451567       -12.2878 
  51   2.0000      -0.447488       -12.1768 
  52   2.0000      -0.433995       -11.8096 
  53   2.0000      -0.425428       -11.5765 
  54   2.0000      -0.420962       -11.4550 
  55   2.0000      -0.417249       -11.3539 
  56   2.0000      -0.403435       -10.9780 
  57   2.0000      -0.401177       -10.9166 
  58   2.0000      -0.397862       -10.8264 
  59   2.0000      -0.387154       -10.5350 
  60   2.0000      -0.385752       -10.4968 
  61   2.0000      -0.380801       -10.3621 
  62   2.0000      -0.369601       -10.0573 
  63   2.0000      -0.360494        -9.8095 
  64   2.0000      -0.357808        -9.7364 
  65   2.0000      -0.350531        -9.5384 
  66   2.0000      -0.345115        -9.3911 
  67   2.0000      -0.338759        -9.2181 
  68   2.0000      -0.326045        -8.8721 
  69   2.0000      -0.321654        -8.7526 
  70   2.0000      -0.319730        -8.7003 
  71   2.0000      -0.294796        -8.0218 
  72   2.0000      -0.275882        -7.5071 
  73   2.0000      -0.263826        -7.1791 
  74   2.0000      -0.240906        -6.5554 
  75   2.0000      -0.230463        -6.2712 
  76   2.0000      -0.188992        -5.1427 
  77   0.0000      -0.087395        -2.3781 
  78   0.0000      -0.047505        -1.2927 
  79   0.0000      -0.039228        -1.0675 
  80   0.0000      -0.015206        -0.4138 
  81   0.0000      -0.002135        -0.0581 
  82   0.0000       0.014407         0.3920 
  83   0.0000       0.025981         0.7070 
  84   0.0000       0.039588         1.0772 
  85   0.0000       0.042497         1.1564 
  86   0.0000       0.063942         1.7400 
  87   0.0000       0.065060         1.7704 
  88   0.0000       0.071942         1.9576 
  89   0.0000       0.079967         2.1760 
  90   0.0000       0.082675         2.2497 
  91   0.0000       0.098128         2.6702 
  92   0.0000       0.100970         2.7475 
  93   0.0000       0.103829         2.8253 
  94   0.0000       0.122423         3.3313 
  95   0.0000       0.124168         3.3788 
  96   0.0000       0.126624         3.4456 
  97   0.0000       0.157964         4.2984 
  98   0.0000       0.161419         4.3924 
  99   0.0000       0.172471         4.6932 
 100   0.0000       0.192966         5.2509 
 101   0.0000       0.199169         5.4197 
 102   0.0000       0.214007         5.8234 
 103   0.0000       0.223620         6.0850 
 104   0.0000       0.232037         6.3141 
 105   0.0000       0.239596         6.5197 
 106   0.0000       0.241237         6.5644 
 107   0.0000       0.244590         6.6556 
 108   0.0000       0.248894         6.7728 
 109   0.0000       0.266575         7.2539 
 110   0.0000       0.270798         7.3688 
 111   0.0000       0.278292         7.5727 
 112   0.0000       0.284192         7.7333 
 113   0.0000       0.296053         8.0560 
 114   0.0000       0.298232         8.1153 
 115   0.0000       0.309116         8.4115 
 116   0.0000       0.316084         8.6011 
 117   0.0000       0.320253         8.7145 
 118   0.0000       0.328049         8.9267 
 119   0.0000       0.333246         9.0681 
 120   0.0000       0.338561         9.2127 
 121   0.0000       0.350184         9.5290 
 122   0.0000       0.356853         9.7105 
 123   0.0000       0.361082         9.8255 
 124   0.0000       0.366633         9.9766 
 125   0.0000       0.373135        10.1535 
 126   0.0000       0.386012        10.5039 
 127   0.0000       0.390471        10.6252 
 128   0.0000       0.401723        10.9314 
 129   0.0000       0.410851        11.1798 
 130   0.0000       0.427886        11.6434 
 131   0.0000       0.430663        11.7189 
 132   0.0000       0.438006        11.9188 
 133   0.0000       0.440679        11.9915 
 134   0.0000       0.449954        12.2439 
 135   0.0000       0.451262        12.2795 
 136   0.0000       0.459134        12.4937 
 137   0.0000       0.462199        12.5771 
 138   0.0000       0.468845        12.7579 
 139   0.0000       0.471428        12.8282 
 140   0.0000       0.473573        12.8866 
 141   0.0000       0.476835        12.9753 
 142   0.0000       0.479551        13.0492 
 143   0.0000       0.489564        13.3217 
 144   0.0000       0.494419        13.4538 
 145   0.0000       0.500209        13.6114 
 146   0.0000       0.503800        13.7091 
 147   0.0000       0.508422        13.8349 
 148   0.0000       0.518426        14.1071 
 149   0.0000       0.523988        14.2584 
 150   0.0000       0.535233        14.5644 
 151   0.0000       0.542338        14.7578 
 152   0.0000       0.547014        14.8850 
 153   0.0000       0.548017        14.9123 
 154   0.0000       0.558699        15.2030 
 155   0.0000       0.566110        15.4046 
 156   0.0000       0.574646        15.6369 
 157   0.0000       0.593258        16.1434 
 158   0.0000       0.594383        16.1740 
 159   0.0000       0.606126        16.4935 
 160   0.0000       0.620233        16.8774 
 161   0.0000       0.620980        16.8977 
 162   0.0000       0.622461        16.9380 
 163   0.0000       0.627993        17.0886 
 164   0.0000       0.637544        17.3485 
 165   0.0000       0.638794        17.3825 
 166   0.0000       0.643794        17.5185 
 167   0.0000       0.648597        17.6492 
 168   0.0000       0.651197        17.7200 
 169   0.0000       0.652574        17.7574 
 170   0.0000       0.663998        18.0683 
 171   0.0000       0.664628        18.0854 
 172   0.0000       0.667885        18.1741 
 173   0.0000       0.671765        18.2796 
 174   0.0000       0.676247        18.4016 
 175   0.0000       0.686990        18.6940 
 176   0.0000       0.694834        18.9074 
 177   0.0000       0.701756        19.0957 
 178   0.0000       0.712477        19.3875 
 179   0.0000       0.720500        19.6058 
 180   0.0000       0.725314        19.7368 
 181   0.0000       0.729311        19.8456 
 182   0.0000       0.734061        19.9748 
 183   0.0000       0.735250        20.0072 
 184   0.0000       0.747380        20.3372 
 185   0.0000       0.752971        20.4894 
 186   0.0000       0.757704        20.6182 
 187   0.0000       0.758632        20.6434 
 188   0.0000       0.765621        20.8336 
 189   0.0000       0.777687        21.1619 
 190   0.0000       0.787717        21.4349 
 191   0.0000       0.790588        21.5130 
 192   0.0000       0.797855        21.7108 
 193   0.0000       0.808427        21.9984 
 194   0.0000       0.822694        22.3867 
 195   0.0000       0.840002        22.8576 
 196   0.0000       0.844389        22.9770 
 197   0.0000       0.858204        23.3529 
 198   0.0000       0.863669        23.5016 
 199   0.0000       0.870227        23.6801 
 200   0.0000       0.882146        24.0044 
 201   0.0000       0.893085        24.3021 
 202   0.0000       0.900979        24.5169 
 203   0.0000       0.906849        24.6766 
 204   0.0000       0.920755        25.0550 
 205   0.0000       0.936260        25.4769 
 206   0.0000       0.953278        25.9400 
 207   0.0000       0.985798        26.8249 
 208   0.0000       1.000725        27.2311 
 209   0.0000       1.015956        27.6456 
 210   0.0000       1.037757        28.2388 
 211   0.0000       1.056432        28.7470 
 212   0.0000       1.081490        29.4288 
 213   0.0000       1.097915        29.8758 
 214   0.0000       1.107433        30.1348 
 215   0.0000       1.127548        30.6821 
 216   0.0000       1.133771        30.8515 
 217   0.0000       1.158671        31.5290 
 218   0.0000       1.166245        31.7351 
 219   0.0000       1.172114        31.8948 
 220   0.0000       1.188615        32.3439 
 221   0.0000       1.196508        32.5586 
 222   0.0000       1.210231        32.9321 
 223   0.0000       1.215556        33.0770 
 224   0.0000       1.220150        33.2020 
 225   0.0000       1.222221        33.2583 
 226   0.0000       1.226072        33.3631 
 227   0.0000       1.233983        33.5784 
 228   0.0000       1.237040        33.6616 
 229   0.0000       1.241247        33.7760 
 230   0.0000       1.247708        33.9519 
 231   0.0000       1.251459        34.0539 
 232   0.0000       1.262222        34.3468 
 233   0.0000       1.264366        34.4051 
 234   0.0000       1.268883        34.5281 
 235   0.0000       1.278859        34.7995 
 236   0.0000       1.292821        35.1795 
 237   0.0000       1.296184        35.2710 
 238   0.0000       1.298423        35.3319 
 239   0.0000       1.331018        36.2189 
 240   0.0000       1.338061        36.4105 
 241   0.0000       1.339890        36.4603 
 242   0.0000       1.349295        36.7162 
 243   0.0000       1.352757        36.8104 
 244   0.0000       1.368470        37.2380 
 245   0.0000       1.378416        37.5086 
 246   0.0000       1.386112        37.7180 
 247   0.0000       1.399265        38.0759 
 248   0.0000       1.445917        39.3454 
 249   0.0000       1.481006        40.3002 
 250   0.0000       1.504105        40.9288 
 251   0.0000       1.509638        41.0793 
 252   0.0000       1.530688        41.6521 
 253   0.0000       1.588775        43.2328 
 254   0.0000       1.612427        43.8764 
 255   0.0000       1.619424        44.0668 
 256   0.0000       1.624342        44.2006 
 257   0.0000       1.628821        44.3225 
 258   0.0000       1.641681        44.6724 
 259   0.0000       1.654581        45.0234 
 260   0.0000       1.655671        45.0531 
 261   0.0000       1.656518        45.0762 
 262   0.0000       1.671922        45.4953 
 263   0.0000       1.677718        45.6530 
 264   0.0000       1.679710        45.7072 
 265   0.0000       1.687935        45.9310 
 266   0.0000       1.696841        46.1734 
 267   0.0000       1.705056        46.3969 
 268   0.0000       1.717979        46.7486 
 269   0.0000       1.722267        46.8653 
 270   0.0000       1.722651        46.8757 
 271   0.0000       1.732922        47.1552 
 272   0.0000       1.742009        47.4025 
 273   0.0000       1.745720        47.5035 
 274   0.0000       1.747619        47.5551 
 275   0.0000       1.753494        47.7150 
 276   0.0000       1.758384        47.8481 
 277   0.0000       1.761984        47.9460 
 278   0.0000       1.765606        48.0446 
 279   0.0000       1.766568        48.0708 
 280   0.0000       1.775070        48.3021 
 281   0.0000       1.780648        48.4539 
 282   0.0000       1.799154        48.9575 
 283   0.0000       1.807037        49.1720 
 284   0.0000       1.812458        49.3195 
 285   0.0000       1.832568        49.8667 
 286   0.0000       1.850161        50.3454 
 287   0.0000       1.854564        50.4653 
 288   0.0000       1.861806        50.6623 
 289   0.0000       1.893321        51.5199 
 290   0.0000       1.903503        51.7970 
 291   0.0000       1.904705        51.8297 
 292   0.0000       1.914813        52.1047 
 293   0.0000       1.928185        52.4686 
 294   0.0000       1.940802        52.8119 
 295   0.0000       1.948596        53.0240 
 296   0.0000       1.957821        53.2750 
 297   0.0000       1.967871        53.5485 
 298   0.0000       1.977887        53.8210 
 299   0.0000       1.993606        54.2488 
 300   0.0000       2.001849        54.4731 
 301   0.0000       2.002903        54.5018 
 302   0.0000       2.027589        55.1735 
 303   0.0000       2.033082        55.3230 
 304   0.0000       2.048613        55.7456 
 305   0.0000       2.052622        55.8547 
 306   0.0000       2.061655        56.1005 
 307   0.0000       2.061806        56.1046 
 308   0.0000       2.069035        56.3013 
 309   0.0000       2.083083        56.6836 
 310   0.0000       2.098565        57.1048 
 311   0.0000       2.099694        57.1356 
 312   0.0000       2.109316        57.3974 
 313   0.0000       2.123017        57.7702 
 314   0.0000       2.145386        58.3789 
 315   0.0000       2.149768        58.4982 
 316   0.0000       2.156651        58.6855 
 317   0.0000       2.173283        59.1380 
 318   0.0000       2.190247        59.5997 
 319   0.0000       2.194955        59.7278 
 320   0.0000       2.215459        60.2857 
 321   0.0000       2.217443        60.3397 
 322   0.0000       2.221658        60.4544 
 323   0.0000       2.241863        61.0042 
 324   0.0000       2.246488        61.1300 
 325   0.0000       2.256655        61.4067 
 326   0.0000       2.259841        61.4934 
 327   0.0000       2.267519        61.7023 
 328   0.0000       2.276303        61.9413 
 329   0.0000       2.288193        62.2649 
 330   0.0000       2.297709        62.5238 
 331   0.0000       2.301022        62.6140 
 332   0.0000       2.306389        62.7600 
 333   0.0000       2.307936        62.8021 
 334   0.0000       2.329655        63.3931 
 335   0.0000       2.359279        64.1993 
 336   0.0000       2.371578        64.5339 
 337   0.0000       2.373151        64.5767 
 338   0.0000       2.397857        65.2490 
 339   0.0000       2.421455        65.8911 
 340   0.0000       2.429542        66.1112 
 341   0.0000       2.467990        67.1574 
 342   0.0000       2.472431        67.2783 
 343   0.0000       2.486768        67.6684 
 344   0.0000       2.507108        68.2219 
 345   0.0000       2.518732        68.5382 
 346   0.0000       2.525863        68.7322 
 347   0.0000       2.553450        69.4829 
 348   0.0000       2.565327        69.8061 
 349   0.0000       2.571791        69.9820 
 350   0.0000       2.590645        70.4950 
 351   0.0000       2.598129        70.6987 
 352   0.0000       2.604548        70.8734 
 353   0.0000       2.610463        71.0343 
 354   0.0000       2.651418        72.1488 
 355   0.0000       2.666054        72.5470 
 356   0.0000       2.680096        72.9291 
 357   0.0000       2.683269        73.0154 
 358   0.0000       2.692471        73.2659 
 359   0.0000       2.696214        73.3677 
 360   0.0000       2.727402        74.2164 
 361   0.0000       2.759770        75.0971 
 362   0.0000       2.767719        75.3135 
 363   0.0000       2.770931        75.4009 
 364   0.0000       2.775464        75.5242 
 365   0.0000       2.805507        76.3417 
 366   0.0000       2.822735        76.8105 
 367   0.0000       2.844609        77.4057 
 368   0.0000       2.853917        77.6590 
 369   0.0000       2.864034        77.9343 
 370   0.0000       2.871853        78.1471 
 371   0.0000       2.912329        79.2485 
 372   0.0000       2.945857        80.1608 
 373   0.0000       2.960005        80.5458 
 374   0.0000       2.967700        80.7552 
 375   0.0000       2.977626        81.0253 
 376   0.0000       2.999474        81.6198 
 377   0.0000       3.015028        82.0431 
 378   0.0000       3.017384        82.1072 
 379   0.0000       3.022094        82.2354 
 380   0.0000       3.090917        84.1081 
 381   0.0000       3.128292        85.1252 
 382   0.0000       3.190688        86.8230 
 383   0.0000       3.240018        88.1654 
 384   0.0000       3.276145        89.1484 
 385   0.0000       3.313131        90.1549 
 386   0.0000       3.329415        90.5980 
 387   0.0000       3.384095        92.0859 
 388   0.0000       3.475476        94.5725 
 389   0.0000       3.536248        96.2262 
 390   0.0000       3.586347        97.5895 
 391   0.0000       3.641360        99.0864 

                    ********************************
                    * MULLIKEN POPULATION ANALYSIS *
                    ********************************

-----------------------
MULLIKEN ATOMIC CHARGES
-----------------------
   0 C :    0.060071
   1 C :   -0.022656
   2 C :   -0.031741
   3 C :    0.071441
   4 C :   -0.014359
   5 C :   -0.031432
   6 C :    0.055849
   7 C :    0.097747
   8 C :   -0.045134
   9 C :   -0.023791
  10 C :    0.059906
  11 C :   -0.006854
  12 C :   -0.046041
  13 C :    0.085007
  14 C :    0.054117
  15 C :    0.067793
  16 C :    0.023180
  17 C :   -0.027189
  18 C :   -0.124580
  19 C :    0.019021
  20 C :   -0.099429
  21 N :   -0.176405
  22 N :    0.032463
  23 H :   -0.027634
  24 H :   -0.031669
  25 H :   -0.033639
  26 H :   -0.036128
  27 H :   -0.036648
  28 H :   -0.032837
  29 H :   -0.030569
  30 H :   -0.031279
  31 H :    0.002584
  32 H :   -0.043347
  33 H :    0.033788
  34 H :    0.008380
  35 H :    0.146713
  36 H :    0.135300
Sum of atomic charges:   -0.0000000

--------------------------------
MULLIKEN REDUCED ORBITAL CHARGES
--------------------------------
  0 C s       :     3.107515  s :     3.107515
      pz      :     1.018963  p :     2.791934
      px      :     0.831606
      py      :     0.941365
      dz2     :     0.003163  d :     0.040480
      dxz     :     0.005648
      dyz     :     0.005905
      dx2y2   :     0.012940
      dxy     :     0.012825
  1 C s       :     3.224477  s :     3.224477
      pz      :     0.973512  p :     2.763123
      px      :     0.971213
      py      :     0.818398
      dz2     :     0.002608  d :     0.035056
      dxz     :     0.007216
      dyz     :     0.002255
      dx2y2   :     0.012804
      dxy     :     0.010173
  2 C s       :     3.244216  s :     3.244216
      pz      :     1.001248  p :     2.752917
      px      :     0.812433
      py      :     0.939236
      dz2     :     0.002627  d :     0.034608
      dxz     :     0.003659
      dyz     :     0.005097
      dx2y2   :     0.011569
      dxy     :     0.011655
  3 C s       :     3.114555  s :     3.114555
      pz      :     0.956429  p :     2.770969
      px      :     0.960476
      py      :     0.854064
      dz2     :     0.003229  d :     0.043036
      dxz     :     0.005968
      dyz     :     0.006972
      dx2y2   :     0.013165
      dxy     :     0.013702
  4 C s       :     3.228802  s :     3.228802
[...]
     87       0.126309   0.000331   0.000054
     88       0.073872   0.000178   0.000029
     89       0.000422   0.000005   0.000002
     90       0.738827  -0.000019   0.000009
     91      -0.416356  -0.000029  -0.000012
     92       0.058887   0.000004  -0.000003
     93       0.422078   0.000111   0.000021
     94       0.259396   0.000089   0.000016
     95       0.002319   0.000000   0.000001
     96      -0.001298  -0.001727   0.001577
     97      -0.000739   0.000397  -0.001004
     98       0.000472  -0.002666  -0.000157
     99       0.042774   0.000067   0.000012
    100       0.032884   0.000069   0.000014
    101      -0.000164  -0.000002   0.000001
    102      -0.000193   0.006707  -0.011667
    103      -0.000133   0.003727  -0.005971
    104       0.000109  -0.002808   0.007162
    105      -0.000021   0.023485   0.046508
    106       0.000069  -0.475936  -0.596372
    107      -0.000100   0.394637   0.509358
    108      -0.000074   0.681095  -0.537863
    109      -0.000051   0.332437  -0.256609
    110       0.000007  -0.199154   0.141970


-----------
IR SPECTRUM
-----------

 Mode   freq       eps      Int      T**2         TX        TY        TZ
       cm**-1   L/(mol*cm) km/mol    a.u.
----------------------------------------------------------------------------
  7:     25.41   0.000035    0.18  0.000428  ( 0.007923 -0.016749  0.009188)
  8:     57.49   0.000896    4.53  0.004862  (-0.010884  0.042337  0.054321)
  9:     70.76   0.000113    0.57  0.000497  ( 0.018483  0.012447  0.000405)
 10:     96.15   0.002142   10.82  0.006951  (-0.009535 -0.081432  0.015123)
 11:     99.66   0.000214    1.08  0.000671  ( 0.009228 -0.020503  0.012882)
 12:    118.73   0.000235    1.19  0.000617  (-0.015994 -0.009552 -0.016437)
 13:    145.38   0.000313    1.58  0.000672  ( 0.002913 -0.025696  0.001911)
 14:    195.02   0.002042   10.32  0.003268  ( 0.003093 -0.040151  0.040571)
 15:    219.49   0.000405    2.05  0.000576  (-0.012418 -0.000859  0.020522)
 16:    220.64   0.000670    3.38  0.000947  ( 0.011229 -0.007998  0.027519)
 17:    255.80   0.000190    0.96  0.000232  (-0.015031 -0.002487  0.000340)
 18:    265.44   0.000195    0.98  0.000229  (-0.001275  0.014596  0.003785)
 19:    287.21   0.001518    7.67  0.001650  ( 0.011515 -0.038948 -0.000042)
 20:    312.35   0.007371   37.25  0.007364  (-0.037152  0.075924  0.014813)
 21:    343.81   0.009995   50.51  0.009072  (-0.023477  0.088845  0.025044)
 22:    367.78   0.003181   16.08  0.002699  (-0.017422  0.048934 -0.001054)
 23:    378.01   0.078587  397.14  0.064877  ( 0.081901 -0.227507 -0.080061)
 24:    419.93   0.004537   22.93  0.003372  (-0.030082  0.049618  0.002178)
 25:    441.27   0.006742   34.07  0.004768  (-0.031489  0.060208  0.012296)
 26:    449.71   0.000054    0.27  0.000038  (-0.000631 -0.002934 -0.005339)
 27:    492.80   0.002559   12.93  0.001620  ( 0.020049 -0.034893  0.000880)
 28:    501.02   0.020672  104.47  0.012876  ( 0.053978 -0.084787 -0.052663)
 29:    509.90   0.001185    5.99  0.000725  (-0.014222  0.016919  0.015382)
 30:    514.32   0.000478    2.42  0.000290  (-0.005377  0.016093  0.001480)
 31:    526.54   0.000182    0.92  0.000108  (-0.000079 -0.009391  0.004443)
 32:    531.18   0.000905    4.57  0.000531  (-0.000421 -0.023018  0.001179)
 33:    561.65   0.000062    0.31  0.000035  (-0.001321  0.004481 -0.003569)
 34:    565.29   0.000072    0.36  0.000039  ( 0.002897 -0.005177 -0.002070)
 35:    582.79   0.000723    3.65  0.000387  ( 0.007502 -0.008806 -0.015913)
 36:    619.68   0.001223    6.18  0.000616  ( 0.008530 -0.022984  0.003871)
 37:    632.39   0.000068    0.34  0.000033  ( 0.002786 -0.004819  0.001560)
 38:    678.32   0.000276    1.39  0.000127  ( 0.005494 -0.008072 -0.005618)
 39:    702.38   0.000305    1.54  0.000135  ( 0.007350 -0.008890  0.001545)
 40:    717.90   0.001045    5.28  0.000454  ( 0.003169 -0.005074 -0.020460)
 41:    753.71   0.002373   11.99  0.000982  ( 0.002887 -0.002103 -0.031140)
 42:    763.81   0.000464    2.34  0.000189  ( 0.003977 -0.005009  0.012188)
 43:    780.28   0.000092    0.46  0.000037  ( 0.004063 -0.004487 -0.000221)
 44:    813.81   0.005448   27.53  0.002089  (-0.019408  0.041333 -0.002057)
 45:    815.18   0.000322    1.63  0.000123  (-0.001191 -0.003599 -0.010437)
 46:    827.12   0.000511    2.58  0.000193  (-0.003972 -0.008668  0.010087)
 47:    842.28   0.003560   17.99  0.001319  (-0.006068 -0.002836 -0.035697)
 48:    853.42   0.000110    0.56  0.000040  ( 0.001033  0.000180 -0.006261)
 49:    871.94   0.006204   31.35  0.002221  (-0.005826  0.002935 -0.046669)
 50:    882.41   0.000780    3.94  0.000276  ( 0.010237 -0.009046 -0.009445)
 51:    888.35   0.005299   26.78  0.001862  (-0.005354  0.005101  0.042508)
 52:    942.05   0.000818    4.14  0.000271  (-0.002421  0.002816 -0.016041)
 53:    970.70   0.012815   64.76  0.004120  (-0.031986  0.035446 -0.042898)
 54:    983.42   0.001409    7.12  0.000447  (-0.007384  0.019571  0.003103)
 55:    984.58   0.004268   21.57  0.001353  (-0.002765  0.008034  0.035786)
 56:    992.51   0.000054    0.27  0.000017  ( 0.001292  0.003447  0.001876)
 57:    999.38   0.001301    6.57  0.000406  (-0.012196  0.015794  0.002829)
 58:   1001.06   0.001511    7.64  0.000471  ( 0.003884 -0.005057  0.020745)
 59:   1010.90   0.000073    0.37  0.000023  ( 0.000274 -0.001712 -0.004417)
 60:   1014.43   0.000008    0.04  0.000002  (-0.001052  0.000753  0.000810)
 61:   1039.75   0.000122    0.62  0.000037  (-0.005918  0.000821  0.000986)
 62:   1072.02   0.003265   16.50  0.000950  (-0.009603  0.029275 -0.001082)
 63:   1120.51   0.000233    1.18  0.000065  ( 0.001546 -0.007888  0.000527)
 64:   1132.79   0.000119    0.60  0.000033  ( 0.003728 -0.004247  0.000987)
 65:   1179.15   0.000199    1.01  0.000053  ( 0.000963 -0.007015  0.001624)
 66:   1187.06   0.000054    0.28  0.000014  ( 0.002963 -0.002337 -0.000284)
 67:   1201.34   0.001452    7.34  0.000377  (-0.002871 -0.019187  0.000898)
 68:   1210.68   0.003904   19.73  0.001006  ( 0.031153 -0.005520  0.002277)
 69:   1241.38   0.012602   63.69  0.003168  ( 0.035073 -0.043570  0.006286)
 70:   1258.27   0.067173  339.47  0.016660  ( 0.061780 -0.112506  0.013608)
 71:   1264.48   0.014409   72.82  0.003556  (-0.027767  0.052560 -0.004730)
 72:   1270.99   0.001027    5.19  0.000252  ( 0.007968 -0.013733  0.000356)
 73:   1280.47   0.001218    6.15  0.000297  ( 0.014674 -0.009015  0.000401)
 74:   1291.04   0.008935   45.15  0.002160  (-0.031088  0.033816 -0.007046)
 75:   1326.73   0.018155   91.75  0.004270  ( 0.032308 -0.055887  0.010151)
 76:   1331.04   0.004394   22.20  0.001030  ( 0.009267 -0.030410  0.004411)
 77:   1335.08   0.000463    2.34  0.000108  ( 0.003937  0.009201 -0.002846)
 78:   1371.87   0.000040    0.20  0.000009  (-0.000133 -0.003015  0.000154)
 79:   1380.62   0.004002   20.23  0.000905  ( 0.025966 -0.015021  0.002173)
 80:   1405.59   0.000559    2.82  0.000124  ( 0.002834 -0.010725  0.000999)
 81:   1410.87   0.001092    5.52  0.000242  (-0.006533  0.014056 -0.001136)
 82:   1424.59   0.004015   20.29  0.000879  ( 0.005144 -0.029083  0.002669)
 83:   1442.28   0.001839    9.30  0.000398  ( 0.011548 -0.016121  0.002173)
 84:   1466.98   0.001352    6.83  0.000288  ( 0.013601 -0.010074  0.001092)
 85:   1505.10   0.000534    2.70  0.000111  ( 0.009853  0.003689 -0.000055)
 86:   1534.95   0.002233   11.29  0.000454  (-0.018335  0.010595 -0.002372)
 87:   1546.31   0.008913   45.04  0.001799  (-0.018870  0.037783 -0.003888)
 88:   1572.97   0.005955   30.09  0.001181  ( 0.022366 -0.025891  0.003296)
 89:   1613.49   0.002558   12.93  0.000495  (-0.014828 -0.015775 -0.005104)
 90:   1622.39   0.000308    1.55  0.000059  ( 0.006799 -0.001486  0.003276)
 91:   1636.19   0.109110  551.40  0.020810  (-0.082404  0.117447 -0.015023)
 92:   1655.48   0.005379   27.18  0.001014  ( 0.004517  0.031517 -0.000504)
 93:   1662.11   0.030004  151.63  0.005633  ( 0.040375 -0.062834  0.007420)
 94:   1673.43   0.003889   19.65  0.000725  ( 0.007485 -0.025551  0.004045)
 95:   1712.21   0.147948  747.67  0.026965  (-0.093026  0.133364 -0.022912)
 96:   2335.40   0.032355  163.51  0.004323  (-0.041440  0.050772 -0.005314)
 97:   3159.44   0.004164   21.04  0.000411  (-0.016320  0.012039 -0.000052)
 98:   3167.75   0.002908   14.70  0.000287  (-0.016227  0.004244  0.002281)
 99:   3170.75   0.000955    4.83  0.000094  ( 0.009358  0.000420 -0.002501)
100:   3172.78   0.000626    3.17  0.000062  (-0.005675  0.005422  0.000093)
101:   3173.11   0.001684    8.51  0.000166  (-0.012578 -0.002042 -0.001793)
102:   3174.92   0.002521   12.74  0.000248  ( 0.015186 -0.003839  0.001544)
103:   3178.29   0.000706    3.57  0.000069  (-0.004112 -0.007240  0.000144)
104:   3191.84   0.004311   21.79  0.000421  ( 0.005722  0.019692 -0.000989)
105:   3198.67   0.002488   12.58  0.000243  (-0.006308 -0.014229  0.000715)
106:   3200.07   0.000295    1.49  0.000029  ( 0.003591 -0.003956  0.000433)
107:   3213.56   0.002853   14.42  0.000277  ( 0.016512 -0.002053  0.000432)
108:   3221.54   0.002861   14.46  0.000277  (-0.015605  0.005692 -0.001122)
109:   3572.33   0.029822  150.71  0.002605  ( 0.032739 -0.037395  0.011612)
110:   3688.52   0.007882   39.83  0.000667  (-0.004560 -0.021367  0.013764)

* The epsilon (eps) is given for a Dirac delta lineshape.
** The dipole moment derivative (T) already includes vibrational overlap.

The first frequency considered to be a vibration is 7
The total number of vibrations considered is 104


--------------------------
THERMOCHEMISTRY AT 298.15K
--------------------------

Temperature         ... 298.15 K
Pressure            ... 1.00 atm
Total Mass          ... 294.36 AMU

Throughout the following assumptions are being made:
  (1) The electronic state is orbitally nondegenerate
  (2) There are no thermally accessible electronically excited states
  (3) Hindered rotations indicated by low frequency modes are not
      treated as such but are treated as vibrations and this may
      cause some error
  (4) All equations used are the standard statistical mechanics
      equations for an ideal gas
  (5) All vibrations are strictly harmonic

freq.      25.41  E(vib)   ...       0.56 
freq.      57.49  E(vib)   ...       0.51 
freq.      70.76  E(vib)   ...       0.50 
freq.      96.15  E(vib)   ...       0.47 
freq.      99.66  E(vib)   ...       0.46 
freq.     118.73  E(vib)   ...       0.44 
freq.     145.38  E(vib)   ...       0.41 
freq.     195.02  E(vib)   ...       0.36 
freq.     219.49  E(vib)   ...       0.33 
freq.     220.64  E(vib)   ...       0.33 
freq.     255.80  E(vib)   ...       0.30 
freq.     265.44  E(vib)   ...       0.29 
freq.     287.21  E(vib)   ...       0.27 
freq.     312.35  E(vib)   ...       0.25 
freq.     343.81  E(vib)   ...       0.23 
freq.     367.78  E(vib)   ...       0.21 
freq.     378.01  E(vib)   ...       0.21 
freq.     419.93  E(vib)   ...       0.18 
freq.     441.27  E(vib)   ...       0.17 
freq.     449.71  E(vib)   ...       0.17 
freq.     492.80  E(vib)   ...       0.14 
freq.     501.02  E(vib)   ...       0.14 
freq.     509.90  E(vib)   ...       0.14 
freq.     514.32  E(vib)   ...       0.13 
freq.     526.54  E(vib)   ...       0.13 
freq.     531.18  E(vib)   ...       0.13 
freq.     561.65  E(vib)   ...       0.11 
freq.     565.29  E(vib)   ...       0.11 
freq.     582.79  E(vib)   ...       0.11 
freq.     619.68  E(vib)   ...       0.09 
freq.     632.39  E(vib)   ...       0.09 
freq.     678.32  E(vib)   ...       0.08 
freq.     702.38  E(vib)   ...       0.07 
freq.     717.90  E(vib)   ...       0.07 
freq.     753.71  E(vib)   ...       0.06 
freq.     763.81  E(vib)   ...       0.06 
freq.     780.28  E(vib)   ...       0.05 
freq.     813.81  E(vib)   ...       0.05 
freq.     815.18  E(vib)   ...       0.05 
freq.     827.12  E(vib)   ...       0.04 
freq.     842.28  E(vib)   ...       0.04 
freq.     853.42  E(vib)   ...       0.04 
freq.     871.94  E(vib)   ...       0.04 
freq.     882.41  E(vib)   ...       0.04 
freq.     888.35  E(vib)   ...       0.04 
freq.     942.05  E(vib)   ...       0.03 
freq.     970.70  E(vib)   ...       0.03 
freq.     983.42  E(vib)   ...       0.02 
freq.     984.58  E(vib)   ...       0.02 
freq.     992.51  E(vib)   ...       0.02 
freq.     999.38  E(vib)   ...       0.02 
freq.    1001.06  E(vib)   ...       0.02 
freq.    1010.90  E(vib)   ...       0.02 
freq.    1014.43  E(vib)   ...       0.02 
freq.    1039.75  E(vib)   ...       0.02 
freq.    1072.02  E(vib)   ...       0.02 
freq.    1120.51  E(vib)   ...       0.01 
freq.    1132.79  E(vib)   ...       0.01 
freq.    1179.15  E(vib)   ...       0.01 
freq.    1187.06  E(vib)   ...       0.01 
freq.    1201.34  E(vib)   ...       0.01 
freq.    1210.68  E(vib)   ...       0.01 
freq.    1241.38  E(vib)   ...       0.01 
freq.    1258.27  E(vib)   ...       0.01 
freq.    1264.48  E(vib)   ...       0.01 
freq.    1270.99  E(vib)   ...       0.01 
freq.    1280.47  E(vib)   ...       0.01 
freq.    1291.04  E(vib)   ...       0.01 
freq.    1326.73  E(vib)   ...       0.01 
freq.    1331.04  E(vib)   ...       0.01 
freq.    1335.08  E(vib)   ...       0.01 
freq.    1371.87  E(vib)   ...       0.01 
freq.    1380.62  E(vib)   ...       0.01 
freq.    1405.59  E(vib)   ...       0.00 
freq.    1410.87  E(vib)   ...       0.00 
freq.    1424.59  E(vib)   ...       0.00 
freq.    1442.28  E(vib)   ...       0.00 
freq.    1466.98  E(vib)   ...       0.00 
freq.    1505.10  E(vib)   ...       0.00 
freq.    1534.95  E(vib)   ...       0.00 
freq.    1546.31  E(vib)   ...       0.00 
freq.    1572.97  E(vib)   ...       0.00 
freq.    1613.49  E(vib)   ...       0.00 
freq.    1622.39  E(vib)   ...       0.00 
freq.    1636.19  E(vib)   ...       0.00 
freq.    1655.48  E(vib)   ...       0.00 
freq.    1662.11  E(vib)   ...       0.00 
freq.    1673.43  E(vib)   ...       0.00 
freq.    1712.21  E(vib)   ...       0.00 
freq.    2335.40  E(vib)   ...       0.00 
freq.    3159.44  E(vib)   ...       0.00 
freq.    3167.75  E(vib)   ...       0.00 
freq.    3170.75  E(vib)   ...       0.00 
freq.    3172.78  E(vib)   ...       0.00 
freq.    3173.11  E(vib)   ...       0.00 
freq.    3174.92  E(vib)   ...       0.00 
freq.    3178.29  E(vib)   ...       0.00 
freq.    3191.84  E(vib)   ...       0.00 
freq.    3198.67  E(vib)   ...       0.00 
freq.    3200.07  E(vib)   ...       0.00 
freq.    3213.56  E(vib)   ...       0.00 
freq.    3221.54  E(vib)   ...       0.00 
freq.    3572.33  E(vib)   ...       0.00 
freq.    3688.52  E(vib)   ...       0.00 

------------
INNER ENERGY
------------

The inner energy is: U= E(el) + E(ZPE) + E(vib) + E(rot) + E(trans)
    E(el)   - is the total energy from the electronic structure calculation
              = E(kin-el) + E(nuc-el) + E(el-el) + E(nuc-nuc)
    E(ZPE)  - the the zero temperature vibrational energy from the frequency calculation
    E(vib)  - the the finite temperature correction to E(ZPE) due to population
              of excited vibrational states
    E(rot)  - is the rotational thermal energy
    E(trans)- is the translational thermal energy

Summary of contributions to the inner energy U:
Electronic energy                ...   -916.94716225 Eh
Zero point energy                ...      0.28954759 Eh     181.69 kcal/mol
Thermal vibrational correction   ...      0.01456560 Eh       9.14 kcal/mol
Thermal rotational correction    ...      0.00141627 Eh       0.89 kcal/mol
Thermal translational correction ...      0.00141627 Eh       0.89 kcal/mol
-----------------------------------------------------------------------
Total thermal energy                   -916.64021651 Eh


Summary of corrections to the electronic energy:
(perhaps to be used in another calculation)
Total thermal correction                  0.01739815 Eh      10.92 kcal/mol
Non-thermal (ZPE) correction              0.28954759 Eh     181.69 kcal/mol
-----------------------------------------------------------------------
Total correction                          0.30694574 Eh     192.61 kcal/mol


--------
ENTHALPY
--------

The enthalpy is H = U + kB*T
                kB is Boltzmann's constant
Total free energy                 ...   -916.64021651 Eh 
Thermal Enthalpy correction       ...      0.00094421 Eh       0.59 kcal/mol
-----------------------------------------------------------------------
Total Enthalpy                    ...   -916.63927230 Eh


Note: Only C1 symmetry has been detected, increase convergence thresholds 
      if your molecule has a higher symmetry. Symmetry factor of 1.0 is   
      used for the rotational entropy correction. 
 

Note: Rotational entropy computed according to Herzberg 
Infrared and Raman Spectra, Chapter V,1, Van Nostrand Reinhold, 1945 
Point Group:  C1, Symmetry Number:   1  
Rotational constants in cm-1:     0.026147     0.003960     0.003443 

Vibrational entropy computed according to the QRRHO of S. Grimme
Chem.Eur.J. 2012 18 9955


-------
ENTROPY
-------

The entropy contributions are T*S = T*(S(el)+S(vib)+S(rot)+S(trans))
     S(el)   - electronic entropy
     S(vib)  - vibrational entropy
     S(rot)  - rotational entropy
     S(trans)- translational entropy
The entropies will be listed as multiplied by the temperature to get
units of energy

Electronic entropy                ...      0.00000000 Eh      0.00 kcal/mol
Vibrational entropy               ...      0.02478442 Eh     15.55 kcal/mol
Rotational entropy                ...      0.01651984 Eh     10.37 kcal/mol
Translational entropy             ...      0.02040028 Eh     12.80 kcal/mol
-----------------------------------------------------------------------
Final entropy term                ...      0.06170454 Eh     38.72 kcal/mol

In case the symmetry of your molecule has not been determined correctly
or in case you have a reason to use a different symmetry number we print 
out the resulting rotational entropy values for sn=1,12 :
 --------------------------------------------------------
|  sn= 1 | S(rot)=       0.01651984 Eh     10.37 kcal/mol|
|  sn= 2 | S(rot)=       0.01586538 Eh      9.96 kcal/mol|
|  sn= 3 | S(rot)=       0.01548255 Eh      9.72 kcal/mol|
|  sn= 4 | S(rot)=       0.01521093 Eh      9.54 kcal/mol|
|  sn= 5 | S(rot)=       0.01500024 Eh      9.41 kcal/mol|
|  sn= 6 | S(rot)=       0.01482809 Eh      9.30 kcal/mol|
|  sn= 7 | S(rot)=       0.01468255 Eh      9.21 kcal/mol|
|  sn= 8 | S(rot)=       0.01455647 Eh      9.13 kcal/mol|
|  sn= 9 | S(rot)=       0.01444526 Eh      9.06 kcal/mol|
|  sn=10 | S(rot)=       0.01434578 Eh      9.00 kcal/mol|
|  sn=11 | S(rot)=       0.01425579 Eh      8.95 kcal/mol|
|  sn=12 | S(rot)=       0.01417364 Eh      8.89 kcal/mol|
 --------------------------------------------------------


-------------------
GIBBS FREE ENERGY
-------------------

The Gibbs free energy is G = H - T*S

Total enthalpy                    ...   -916.63927230 Eh 
Total entropy correction          ...     -0.06170454 Eh    -38.72 kcal/mol
-----------------------------------------------------------------------
Final Gibbs free energy         ...   -916.70097685 Eh

For completeness - the Gibbs free energy minus the electronic energy
G-E(el)                           ...      0.24618540 Eh    154.48 kcal/mol


Timings for individual modules:

Sum of individual times         ...     3889.620 sec (=  64.827 min)
GTO integral calculation        ...      140.129 sec (=   2.335 min)   3.6 %
SCF iterations                  ...     2353.126 sec (=  39.219 min)  60.5 %
SCF Gradient evaluation         ...      426.838 sec (=   7.114 min)  11.0 %
Geometry relaxation             ...       25.810 sec (=   0.430 min)   0.7 %
Analytical frequency calculation...      943.717 sec (=  15.729 min)  24.3 %
                             ****ORCA TERMINATED NORMALLY****
TOTAL RUN TIME: 0 days 1 hours 5 minutes 28 seconds 641 msec
