Start Job  on nano05

                                 *****************
                                 * O   R   C   A *
                                 *****************

                                            #,                                       
                                            ###                                      
                                            ####                                     
                                            #####                                    
                                            ######                                   
                                           ########,                                 
                                     ,,################,,,,,                         
                               ,,#################################,,                 
                          ,,##########################################,,             
                       ,#########################################, ''#####,          
                    ,#############################################,,   '####,        
                  ,##################################################,,,,####,       
                ,###########''''           ''''###############################       
              ,#####''   ,,,,##########,,,,          '''####'''          '####       
            ,##' ,,,,###########################,,,                        '##       
           ' ,,###''''                  '''############,,,                           
         ,,##''                                '''############,,,,        ,,,,,,###''
      ,#''                                            '''#######################'''  
     '                                                          ''''####''''         
             ,#######,   #######,   ,#######,      ##                                
            ,#'     '#,  ##    ##  ,#'     '#,    #''#        ######   ,####,        
            ##       ##  ##   ,#'  ##            #'  '#       #        #'  '#        
            ##       ##  #######   ##           ,######,      #####,   #    #        
            '#,     ,#'  ##    ##  '#,     ,#' ,#      #,         ##   #,  ,#        
             '#######'   ##     ##  '#######'  #'      '#     #####' # '####'        



                  #######################################################
                  #                        -***-                        #
                  #          Department of theory and spectroscopy      #
                  #    Directorship and core code : Frank Neese         #
                  #        Max Planck Institute fuer Kohlenforschung    #
                  #                Kaiser Wilhelm Platz 1               #
                  #                 D-45470 Muelheim/Ruhr               #
                  #                      Germany                        #
                  #                                                     #
                  #                  All rights reserved                #
                  #                        -***-                        #
                  #######################################################


                         Program Version 5.0.4 -  RELEASE  -


 With contributions from (in alphabetic order):
   Daniel Aravena         : Magnetic Suceptibility
   Michael Atanasov       : Ab Initio Ligand Field Theory (pilot matlab implementation)
   Alexander A. Auer      : GIAO ZORA, VPT2 properties, NMR spectrum
   Ute Becker             : Parallelization
   Giovanni Bistoni       : ED, misc. LED, open-shell LED, HFLD
   Martin Brehm           : Molecular dynamics
   Dmytro Bykov           : SCF Hessian
   Vijay G. Chilkuri      : MRCI spin determinant printing, contributions to CSF-ICE
   Dipayan Datta          : RHF DLPNO-CCSD density
   Achintya Kumar Dutta   : EOM-CC, STEOM-CC
   Dmitry Ganyushin       : Spin-Orbit,Spin-Spin,Magnetic field MRCI
   Miquel Garcia          : C-PCM and meta-GGA Hessian, CC/C-PCM, Gaussian charge scheme
   Yang Guo               : DLPNO-NEVPT2, F12-NEVPT2, CIM, IAO-localization
   Andreas Hansen         : Spin unrestricted coupled pair/coupled cluster methods
   Benjamin Helmich-Paris : MC-RPA, TRAH-SCF, COSX integrals
   Lee Huntington         : MR-EOM, pCC
   Robert Izsak           : Overlap fitted RIJCOSX, COSX-SCS-MP3, EOM
   Marcus Kettner         : VPT2
   Christian Kollmar      : KDIIS, OOCD, Brueckner-CCSD(T), CCSD density, CASPT2, CASPT2-K
   Simone Kossmann        : Meta GGA functionals, TD-DFT gradient, OOMP2, MP2 Hessian
   Martin Krupicka        : Initial AUTO-CI
   Lucas Lang             : DCDCAS
   Marvin Lechner         : AUTO-CI (C++ implementation), FIC-MRCC
   Dagmar Lenk            : GEPOL surface, SMD
   Dimitrios Liakos       : Extrapolation schemes; Compound Job, initial MDCI parallelization
   Dimitrios Manganas     : Further ROCIS development; embedding schemes
   Dimitrios Pantazis     : SARC Basis sets
   Anastasios Papadopoulos: AUTO-CI, single reference methods and gradients
   Taras Petrenko         : DFT Hessian,TD-DFT gradient, ASA, ECA, R-Raman, ABS, FL, XAS/XES, NRVS
   Peter Pinski           : DLPNO-MP2, DLPNO-MP2 Gradient
   Christoph Reimann      : Effective Core Potentials
   Marius Retegan         : Local ZFS, SOC
   Christoph Riplinger    : Optimizer, TS searches, QM/MM, DLPNO-CCSD(T), (RO)-DLPNO pert. Triples
   Tobias Risthaus        : Range-separated hybrids, TD-DFT gradient, RPA, STAB
   Michael Roemelt        : Original ROCIS implementation
   Masaaki Saitow         : Open-shell DLPNO-CCSD energy and density
   Barbara Sandhoefer     : DKH picture change effects
   Avijit Sen             : IP-ROCIS
   Kantharuban Sivalingam : CASSCF convergence, NEVPT2, FIC-MRCI
   Bernardo de Souza      : ESD, SOC TD-DFT
   Georgi Stoychev        : AutoAux, RI-MP2 NMR, DLPNO-MP2 response
   Willem Van den Heuvel  : Paramagnetic NMR
   Boris Wezisla          : Elementary symmetry handling
   Frank Wennmohs         : Technical directorship


 We gratefully acknowledge several colleagues who have allowed us to
 interface, adapt or use parts of their codes:
   Stefan Grimme, W. Hujo, H. Kruse, P. Pracht,  : VdW corrections, initial TS optimization,
                  C. Bannwarth, S. Ehlert          DFT functionals, gCP, sTDA/sTD-DF
   Ed Valeev, F. Pavosevic, A. Kumar             : LibInt (2-el integral package), F12 methods
   Garnet Chan, S. Sharma, J. Yang, R. Olivares  : DMRG
   Ulf Ekstrom                                   : XCFun DFT Library
   Mihaly Kallay                                 : mrcc  (arbitrary order and MRCC methods)
   Jiri Pittner, Ondrej Demel                    : Mk-CCSD
   Frank Weinhold                                : gennbo (NPA and NBO analysis)
   Christopher J. Cramer and Donald G. Truhlar   : smd solvation model
   Lars Goerigk                                  : TD-DFT with DH, B97 family of functionals
   V. Asgeirsson, H. Jonsson                     : NEB implementation
   FAccTs GmbH                                   : IRC, NEB, NEB-TS, DLPNO-Multilevel, CI-OPT
                                                   MM, QMMM, 2- and 3-layer-ONIOM, Crystal-QMMM,
                                                   LR-CPCM, SF, NACMEs, symmetry and pop. for TD-DFT,
                                                   nearIR, NL-DFT gradient (VV10), updates on ESD,
                                                   ML-optimized integration grids
   S Lehtola, MJT Oliveira, MAL Marques          : LibXC Library
   Liviu Ungur et al                             : ANISO software


 Your calculation uses the libint2 library for the computation of 2-el integrals
 For citations please refer to: http://libint.valeyev.net

 Your ORCA version has been built with support for libXC version: 5.1.0
 For citations please refer to: https://tddft.org/programs/libxc/

 This ORCA versions uses:
   CBLAS   interface :  Fast vector & matrix operations
   LAPACKE interface :  Fast linear algebra routines
   SCALAPACK package :  Parallel linear algebra routines
   Shared memory     :  Shared parallel matrices
   BLAS/LAPACK       :  OpenBLAS 0.3.15  USE64BITINT DYNAMIC_ARCH NO_AFFINITY Zen SINGLE_THREADED
        Core in use  :  Zen
   Copyright (c) 2011-2014, The OpenBLAS Project


================================================================================

----- Orbital basis set information -----
Your calculation utilizes the basis: def2-SVP
   F. Weigend and R. Ahlrichs, Phys. Chem. Chem. Phys. 7, 3297 (2005).

----- AuxJ basis set information -----
Your calculation utilizes the auxiliary basis: def2/J
   F. Weigend, Phys. Chem. Chem. Phys. 8, 1057 (2006).

================================================================================
                                        WARNINGS
                       Please study these warnings very carefully!
================================================================================


WARNING: Geometry Optimization
  ===> : Switching off AutoStart
         For restart on a previous wavefunction, please use MOREAD

INFO   : the flag for use of the SHARK integral package has been found!

================================================================================
                                       INPUT FILE
================================================================================
NAME = NC_NH2_2.inp
|  1> ! B3LYP def2-SVP Opt PAL8 FREQ defgrid3 slowconv VeryTightSCF
|  2> *xyz 0 1
|  3>   C      -7.228982      3.036029     -0.277960
|  4>   C      -5.972786      3.680575     -0.277902
|  5>   C      -4.786362      2.977780     -0.177035
|  6>   C      -4.787438      1.571841     -0.069510
|  7>   C      -3.573387      0.822703      0.032386
|  8>   C      -3.582866     -0.539693      0.134815
|  9>   C      -4.804009     -1.295394      0.147072
| 10>   C      -4.824138     -2.726834      0.253867
| 11>   C      -6.087866     -3.363979      0.256340
| 12>   C      -7.274579     -2.659416      0.161335
| 13>   C      -7.283456     -1.255001      0.054658
| 14>   C      -8.496149     -0.506473     -0.045897
| 15>   C      -8.493540      0.855952     -0.151446
| 16>   C      -7.268445      1.607197     -0.165709
| 17>   C      -6.033981      0.872168     -0.062459
| 18>   C      -6.036583     -0.560608      0.046824
| 19>   C      -8.457296      3.815273     -0.394704
| 20>   C      -3.590814     -3.498729      0.356104
| 21>   C      -8.567885      5.163771     -0.514902
| 22>   C      -3.494606     -4.851694      0.461988
| 23>   C      -9.830733      5.815426     -0.627826
| 24>   N      -2.334995     -5.563795      0.556666
| 25>   N     -10.853578      6.362725     -0.721048
| 26>   H      -5.928726      4.768210     -0.360620
| 27>   H      -3.831773      3.510692     -0.181387
| 28>   H      -2.624151      1.365553      0.026115
| 29>   H      -2.627120     -1.057524      0.209182
| 30>   H      -6.141294     -4.451568      0.335675
| 31>   H      -8.227241     -3.196917      0.168210
| 32>   H      -9.445614     -1.049607     -0.037410
| 33>   H      -9.450715      1.370937     -0.225379
| 34>   H      -9.397432      3.261837     -0.388677
| 35>   H      -2.647046     -2.949559      0.347841
| 36>   H      -7.694379      5.821454     -0.533768
| 37>   H      -4.389807     -5.480207      0.478173
| 38>   H      -2.346106     -6.569613      0.632952
| 39>   H      -1.434309     -5.103511      0.553438
| 40> *
| 41> 
| 42>                          ****END OF INPUT****
================================================================================

                       *****************************
                       * Geometry Optimization Run *
                       *****************************

Geometry optimization settings:
Update method            Update   .... BFGS
Choice of coordinates    CoordSys .... Z-matrix Internals
Initial Hessian          InHess   .... Almoef's Model

Convergence Tolerances:
Energy Change            TolE     ....  5.0000e-06 Eh
Max. Gradient            TolMAXG  ....  3.0000e-04 Eh/bohr
RMS Gradient             TolRMSG  ....  1.0000e-04 Eh/bohr
Max. Displacement        TolMAXD  ....  4.0000e-03 bohr
RMS Displacement         TolRMSD  ....  2.0000e-03 bohr
Strict Convergence                ....  False
------------------------------------------------------------------------------
                        ORCA OPTIMIZATION COORDINATE SETUP
------------------------------------------------------------------------------

The optimization will be done in new redundant internal coordinates
Making redundant internal coordinates   ...  (new redundants) done
Evaluating the initial hessian          ...  (Almloef) done
Evaluating the coordinates              ...  done
Calculating the B-matrix                .... done
Calculating the G-matrix                .... done
Diagonalizing the G-matrix              .... done
Small eigenvalue found = 5.052e-03
Small eigenvalue found = 1.035e-02
Small eigenvalue found = 1.469e-02
The first mode is                       ....   96
The number of degrees of freedom        ....  105

    -----------------------------------------------------------------
                    Redundant Internal Coordinates


    -----------------------------------------------------------------
         Definition                    Initial Value    Approx d2E/dq
    -----------------------------------------------------------------
      1. B(C   1,C   0)                  1.4119         0.576494   
      2. B(C   2,C   1)                  1.3826         0.641917   
      3. B(C   3,C   2)                  1.4100         0.580441   
      4. B(C   4,C   3)                  1.4302         0.538990   
      5. B(C   5,C   4)                  1.3663         0.681698   
      6. B(C   6,C   5)                  1.4361         0.527431   
      7. B(C   7,C   6)                  1.4356         0.528508   
      8. B(C   8,C   7)                  1.4153         0.569421   
      9. B(C   9,C   8)                  1.3834         0.640192   
     10. B(C  10,C   9)                  1.4085         0.583769   
     11. B(C  11,C  10)                  1.4286         0.542102   
     12. B(C  12,C  11)                  1.3665         0.681107   
     13. B(C  13,C  12)                  1.4372         0.525408   
     14. B(C  13,C   0)                  1.4338         0.531978   
     15. B(C  14,C   3)                  1.4295         0.540410   
     16. B(C  14,C  13)                  1.4404         0.519141   
     17. B(C  15,C  14)                  1.4369         0.525834   
     18. B(C  15,C  10)                  1.4272         0.544965   
     19. B(C  15,C   6)                  1.4385         0.522885   
     20. B(C  16,C   0)                  1.4593         0.484337   
     21. B(C  17,C   7)                  1.4585         0.485707   
     22. B(C  18,C  16)                  1.3584         0.701824   
     23. B(C  19,C  17)                  1.3605         0.696292   
     24. B(C  20,C  18)                  1.4255         0.548304   
     25. B(N  21,C  19)                  1.3641         0.615472   
     26. B(N  22,C  20)                  1.1638         1.284570   
     27. B(H  23,C   1)                  1.0917         0.357904   
     28. B(H  24,C   2)                  1.0933         0.355791   
     29. B(H  25,C   4)                  1.0935         0.355480   
     30. B(H  26,C   5)                  1.0896         0.360689   
     31. B(H  27,C   8)                  1.0918         0.357744   
     32. B(H  28,C   9)                  1.0939         0.355036   
     33. B(H  29,C  11)                  1.0939         0.355017   
     34. B(H  30,C  12)                  1.0894         0.360854   
     35. B(H  31,C  16)                  1.0910         0.358838   
     36. B(H  32,C  17)                  1.0919         0.357530   
     37. B(H  33,C  18)                  1.0936         0.355396   
     38. B(H  34,C  19)                  1.0939         0.354943   
     39. B(H  35,N  21)                  1.0088         0.434671   
     40. B(H  36,N  21)                  1.0115         0.430350   
     41. A(C  13,C   0,C  16)          121.0130         0.404194   
     42. A(C   1,C   0,C  16)          120.3392         0.409980   
     43. A(C   1,C   0,C  13)          118.6475         0.416869   
     44. A(C   0,C   1,H  23)          119.3886         0.348239   
     45. A(C   2,C   1,H  23)          118.5103         0.354624   
     46. A(C   0,C   1,C   2)          122.1011         0.431110   
     47. A(C   3,C   2,H  24)          119.1433         0.348292   
     48. A(C   1,C   2,C   3)          120.7789         0.431638   
     49. A(C   1,C   2,H  24)          120.0777         0.354268   
     50. A(C   2,C   3,C  14)          119.2795         0.418546   
     51. A(C   2,C   3,C   4)          121.8066         0.418350   
     52. A(C   4,C   3,C  14)          118.9139         0.413066   
     53. A(C   5,C   4,H  25)          120.0973         0.357850   
     54. A(C   3,C   4,H  25)          118.4523         0.343930   
     55. A(C   3,C   4,C   5)          121.4504         0.430557   
     56. A(C   4,C   5,H  26)          118.2260         0.358737   
     57. A(C   4,C   5,C   6)          122.0905         0.428886   
     58. A(C   6,C   5,H  26)          119.6835         0.343519   
     59. A(C   5,C   6,C   7)          122.4973         0.409858   
     60. A(C   7,C   6,C  15)          120.1665         0.409230   
     61. A(C   5,C   6,C  15)          117.3362         0.409082   
     62. A(C   8,C   7,C  17)          121.1091         0.409289   
     63. A(C   6,C   7,C   8)          117.4874         0.415470   
     64. A(C   6,C   7,C  17)          121.4034         0.403929   
     65. A(C   9,C   8,H  27)          118.0577         0.354436   
     66. A(C   7,C   8,H  27)          119.4911         0.347490   
     67. A(C   7,C   8,C   9)          122.4512         0.429948   
     68. A(C  10,C   9,H  28)          119.0091         0.348503   
     69. A(C   8,C   9,H  28)          119.7631         0.353979   
     70. A(C   8,C   9,C  10)          121.2279         0.431873   
     71. A(C  11,C  10,C  15)          119.0963         0.414105   
     72. A(C   9,C  10,C  15)          118.6880         0.419600   
     73. A(C   9,C  10,C  11)          122.2157         0.419206   
     74. A(C  10,C  11,H  29)          118.4301         0.344187   
     75. A(C  10,C  11,C  12)          121.7485         0.430936   
     76. A(C  12,C  11,H  29)          119.8214         0.357718   
     77. A(C  13,C  12,H  30)          120.0783         0.343324   
     78. A(C  11,C  12,H  30)          118.3503         0.358712   
     79. A(C  11,C  12,C  13)          121.5714         0.428523   
     80. A(C  12,C  13,C  14)          117.5874         0.408284   
     81. A(C   0,C  13,C  14)          119.3767         0.409184   
     82. A(C   0,C  13,C  12)          123.0359         0.410055   
     83. A(C  13,C  14,C  15)          120.8443         0.408343   
     84. A(C   3,C  14,C  15)          119.3399         0.411258   
     85. A(C   3,C  14,C  13)          119.8158         0.410325   
     86. A(C  10,C  15,C  14)          119.1520         0.411871   
     87. A(C   6,C  15,C  14)          120.8691         0.408863   
     88. A(C   6,C  15,C  10)          119.9789         0.411460   
     89. A(C  18,C  16,H  31)          115.7181         0.360203   
     90. A(C   0,C  16,H  31)          117.0017         0.338365   
     91. A(C   0,C  16,C  18)          127.2799         0.424594   
     92. A(C  19,C  17,H  32)          116.0789         0.359494   
     93. A(C   7,C  17,H  32)          117.6549         0.338318   
     94. A(C   7,C  17,C  19)          126.2662         0.424208   
     95. A(C  20,C  18,H  33)          115.5508         0.344907   
     96. A(C  16,C  18,H  33)          122.2447         0.359612   
     97. A(C  16,C  18,C  20)          122.2043         0.434150   
     98. A(N  21,C  19,H  34)          113.2477         0.349452   
     99. A(C  17,C  19,H  34)          120.9737         0.359050   
    100. A(C  17,C  19,N  21)          125.7786         0.439752   
    101. L(C  18,C  20,N  22,H  33, 2) 179.9944         0.481500   
    102. L(C  18,C  20,N  22,H  33, 1) 179.1457         0.481500   
    103. A(C  19,N  21,H  35)          121.0905         0.358498   
    104. A(H  35,N  21,H  36)          117.6310         0.303212   
    105. A(C  19,N  21,H  36)          121.2785         0.357889   
    106. D(C   2,C   1,C   0,C  13)      0.1806         0.022821   
    107. D(H  23,C   1,C   0,C  16)      0.3269         0.022821   
    108. D(C   2,C   1,C   0,C  16)   -179.6217         0.022821   
    109. D(H  23,C   1,C   0,C  13)   -179.8708         0.022821   
    110. D(C   3,C   2,C   1,H  23)   -179.9255         0.028641   
    111. D(C   3,C   2,C   1,C   0)      0.0236         0.028641   
    112. D(H  24,C   2,C   1,H  23)     -0.0143         0.028641   
    113. D(H  24,C   2,C   1,C   0)    179.9347         0.028641   
    114. D(C  14,C   3,C   2,H  24)    179.9506         0.023149   
    115. D(C   4,C   3,C   2,C   1)    179.8303         0.023149   
    116. D(C   4,C   3,C   2,H  24)     -0.0817         0.023149   
    117. D(C  14,C   3,C   2,C   1)     -0.1375         0.023149   
    118. D(H  25,C   4,C   3,C   2)      0.0240         0.019848   
    119. D(C   5,C   4,C   3,C   2)   -179.9287         0.019848   
    120. D(C   5,C   4,C   3,C  14)      0.0392         0.019848   
    121. D(H  25,C   4,C   3,C  14)    179.9918         0.019848   
    122. D(H  26,C   5,C   4,H  25)      0.0229         0.032588   
    123. D(C   6,C   5,C   4,C   3)     -0.0417         0.032588   
    124. D(C   6,C   5,C   4,H  25)   -179.9936         0.032588   
    125. D(H  26,C   5,C   4,C   3)    179.9748         0.032588   
    126. D(C  15,C   6,C   5,H  26)    179.9675         0.018984   
    127. D(C  15,C   6,C   5,C   4)     -0.0158         0.018984   
    128. D(C   7,C   6,C   5,H  26)     -0.0381         0.018984   
    129. D(C   7,C   6,C   5,C   4)    179.9787         0.018984   
    130. D(C  17,C   7,C   6,C  15)    179.9621         0.019063   
    131. D(C  17,C   7,C   6,C   5)     -0.0322         0.019063   
    132. D(C   8,C   7,C   6,C  15)     -0.0364         0.019063   
    133. D(C   8,C   7,C   6,C   5)    179.9693         0.019063   
    134. D(H  27,C   8,C   7,C   6)    179.9737         0.022240   
    135. D(C   9,C   8,C   7,C  17)    179.9754         0.022240   
    136. D(C   9,C   8,C   7,C   6)     -0.0261         0.022240   
    137. D(H  27,C   8,C   7,C  17)     -0.0247         0.022240   
    138. D(H  28,C   9,C   8,H  27)      0.0445         0.028477   
    139. D(H  28,C   9,C   8,C   7)   -179.9556         0.028477   
    140. D(C  10,C   9,C   8,H  27)   -179.9312         0.028477   
    141. D(C  10,C   9,C   8,C   7)      0.0686         0.028477   
    142. D(C  15,C  10,C   9,H  28)    179.9784         0.023428   
    143. D(C  15,C  10,C   9,C   8)     -0.0457         0.023428   
    144. D(C  11,C  10,C   9,H  28)     -0.0378         0.023428   
    145. D(C  11,C  10,C   9,C   8)    179.9382         0.023428   
    146. D(H  29,C  11,C  10,C  15)   -179.9151         0.020085   
    147. D(H  29,C  11,C  10,C   9)      0.1011         0.020085   
    148. D(C  12,C  11,C  10,C  15)      0.1050         0.020085   
    149. D(C  12,C  11,C  10,C   9)   -179.8788         0.020085   
    150. D(H  30,C  12,C  11,H  29)     -0.0060         0.032527   
    151. D(H  30,C  12,C  11,C  10)    179.9735         0.032527   
    152. D(C  13,C  12,C  11,H  29)    179.9721         0.032527   
    153. D(C  13,C  12,C  11,C  10)     -0.0484         0.032527   
    154. D(C  14,C  13,C  12,H  30)    179.8914         0.018835   
    155. D(C   0,C  13,C  12,H  30)     -0.1589         0.018835   
    156. D(C   0,C  13,C  12,C  11)    179.8634         0.018835   
    157. D(C  14,C  13,C   0,C  16)    179.5345         0.019321   
    158. D(C  14,C  13,C   0,C   1)     -0.2664         0.019321   
    159. D(C  14,C  13,C  12,C  11)     -0.0863         0.018835   
    160. D(C  12,C  13,C   0,C  16)     -0.4143         0.019321   
    161. D(C  12,C  13,C   0,C   1)    179.7847         0.019321   
    162. D(C   3,C  14,C  13,C  12)   -179.8914         0.018379   
    163. D(C   3,C  14,C  13,C   0)      0.1569         0.018379   
    164. D(C  15,C  14,C   3,C   4)      0.0204         0.019956   
    165. D(C  15,C  14,C   3,C   2)    179.9891         0.019956   
    166. D(C  13,C  14,C   3,C   4)   -179.9237         0.019956   
    167. D(C  15,C  14,C  13,C   0)   -179.7863         0.018379   
    168. D(C  13,C  14,C   3,C   2)      0.0450         0.019956   
    169. D(C  15,C  14,C  13,C  12)      0.1653         0.018379   
    170. D(C  10,C  15,C  14,C  13)     -0.1114         0.018866   
    171. D(C   6,C  15,C  14,C  13)    179.8654         0.018866   
    172. D(C   6,C  15,C  14,C   3)     -0.0781         0.018866   
    173. D(C  14,C  15,C  10,C  11)     -0.0240         0.020304   
    174. D(C  14,C  15,C  10,C   9)    179.9604         0.020304   
    175. D(C   6,C  15,C  10,C  11)    179.9990         0.020304   
    176. D(C   6,C  15,C  10,C   9)     -0.0166         0.020304   
    177. D(C  14,C  15,C   6,C   7)   -179.9191         0.018650   
    178. D(C  14,C  15,C   6,C   5)      0.0755         0.018650   
    179. D(C  10,C  15,C  14,C   3)    179.9451         0.018866   
    180. D(C  10,C  15,C   6,C   7)      0.0574         0.018650   
    181. D(C  10,C  15,C   6,C   5)   -179.9480         0.018650   
    182. D(H  31,C  16,C   0,C  13)      0.2134         0.015972   
    183. D(H  31,C  16,C   0,C   1)   -179.9890         0.015972   
    184. D(C  18,C  16,C   0,C  13)   -179.5940         0.015972   
    185. D(C  18,C  16,C   0,C   1)      0.2036         0.015972   
    186. D(H  32,C  17,C   7,C   8)    179.9463         0.016062   
    187. D(H  32,C  17,C   7,C   6)     -0.0521         0.016062   
    188. D(C  19,C  17,C   7,C   8)     -0.0437         0.016062   
    189. D(C  19,C  17,C   7,C   6)    179.9579         0.016062   
    190. D(H  33,C  18,C  16,H  31)   -179.9387         0.034706   
    191. D(H  33,C  18,C  16,C   0)     -0.1291         0.034706   
    192. D(C  20,C  18,C  16,H  31)     -0.0803         0.034706   
    193. D(C  20,C  18,C  16,C   0)    179.7293         0.034706   
    194. D(H  34,C  19,C  17,H  32)    179.9880         0.034116   
    195. D(H  34,C  19,C  17,C   7)     -0.0218         0.034116   
    196. D(N  21,C  19,C  17,H  32)     -0.0115         0.034116   
    197. D(N  21,C  19,C  17,C   7)    179.9786         0.034116   
    198. D(H  36,N  21,C  19,H  34)   -179.9988         0.030639   
    199. D(H  36,N  21,C  19,C  17)      0.0008         0.030639   
    200. D(H  35,N  21,C  19,H  34)     -0.0308         0.030639   
    201. D(H  35,N  21,C  19,C  17)    179.9688         0.030639   
    -----------------------------------------------------------------

Number of atoms                         .... 37
Number of degrees of freedom            .... 201

         *************************************************************
         *                GEOMETRY OPTIMIZATION CYCLE   1            *
         *************************************************************
---------------------------------
CARTESIAN COORDINATES (ANGSTROEM)
---------------------------------
  C     -7.228982    3.036029   -0.277960
  C     -5.972786    3.680575   -0.277902
  C     -4.786362    2.977780   -0.177035
  C     -4.787438    1.571841   -0.069510
  C     -3.573387    0.822703    0.032386
  C     -3.582866   -0.539693    0.134815
  C     -4.804009   -1.295394    0.147072
  C     -4.824138   -2.726834    0.253867
  C     -6.087866   -3.363979    0.256340
  C     -7.274579   -2.659416    0.161335
  C     -7.283456   -1.255001    0.054658
  C     -8.496149   -0.506473   -0.045897
  C     -8.493540    0.855952   -0.151446
  C     -7.268445    1.607197   -0.165709
  C     -6.033981    0.872168   -0.062459
  C     -6.036583   -0.560608    0.046824
  C     -8.457296    3.815273   -0.394704
  C     -3.590814   -3.498729    0.356104
  C     -8.567885    5.163771   -0.514902
  C     -3.494606   -4.851694    0.461988
  C     -9.830733    5.815426   -0.627826
  N     -2.334995   -5.563795    0.556666
  N    -10.853578    6.362725   -0.721048
  H     -5.928726    4.768210   -0.360620
  H     -3.831773    3.510692   -0.181387
  H     -2.624151    1.365553    0.026115
  H     -2.627120   -1.057524    0.209182
  H     -6.141294   -4.451568    0.335675
  H     -8.227241   -3.196917    0.168210
  H     -9.445614   -1.049607   -0.037410
  H     -9.450715    1.370937   -0.225379
  H     -9.397432    3.261837   -0.388677
  H     -2.647046   -2.949559    0.347841
  H     -7.694379    5.821454   -0.533768
  H     -4.389807   -5.480207    0.478173
  H     -2.346106   -6.569613    0.632952
  H     -1.434309   -5.103511    0.553438

----------------------------
CARTESIAN COORDINATES (A.U.)
----------------------------
  NO LB      ZA    FRAG     MASS         X           Y           Z
   0 C     6.0000    0    12.011  -13.660796    5.737263   -0.525268
   1 C     6.0000    0    12.011  -11.286930    6.955279   -0.525159
   2 C     6.0000    0    12.011   -9.044913    5.627189   -0.334548
   3 C     6.0000    0    12.011   -9.046947    2.970349   -0.131355
   4 C     6.0000    0    12.011   -6.752723    1.554683    0.061201
   5 C     6.0000    0    12.011   -6.770636   -1.019872    0.254763
   6 C     6.0000    0    12.011   -9.078261   -2.447940    0.277926
   7 C     6.0000    0    12.011   -9.116300   -5.152969    0.479739
   8 C     6.0000    0    12.011  -11.504399   -6.356999    0.484412
   9 C     6.0000    0    12.011  -13.746962   -5.025568    0.304879
  10 C     6.0000    0    12.011  -13.763737   -2.371608    0.103289
  11 C     6.0000    0    12.011  -16.055395   -0.957095   -0.086733
  12 C     6.0000    0    12.011  -16.050465    1.617515   -0.286191
  13 C     6.0000    0    12.011  -13.735370    3.037162   -0.313145
  14 C     6.0000    0    12.011  -11.402572    1.648159   -0.118030
  15 C     6.0000    0    12.011  -11.407489   -1.059396    0.088485
  16 C     6.0000    0    12.011  -15.981973    7.209821   -0.745882
  17 C     6.0000    0    12.011   -6.785655   -6.611640    0.672939
  18 C     6.0000    0    12.011  -16.190956    9.758113   -0.973024
  19 C     6.0000    0    12.011   -6.603848   -9.168373    0.873031
  20 C     6.0000    0    12.011  -18.577393   10.989562   -1.186419
  21 N     7.0000    0    14.007   -4.412501  -10.514049    1.051946
  22 N     7.0000    0    14.007  -20.510290   12.023808   -1.362583
  23 H     1.0000    0     1.008  -11.203668    9.010611   -0.681473
  24 H     1.0000    0     1.008   -7.241002    6.634246   -0.342772
  25 H     1.0000    0     1.008   -4.958927    2.580521    0.049350
  26 H     1.0000    0     1.008   -4.964537   -1.998431    0.395297
  27 H     1.0000    0     1.008  -11.605364   -8.412244    0.634334
  28 H     1.0000    0     1.008  -15.547232   -6.041298    0.317871
  29 H     1.0000    0     1.008  -17.849624   -1.983470   -0.070695
  30 H     1.0000    0     1.008  -17.859263    2.590695   -0.425905
  31 H     1.0000    0     1.008  -17.758573    6.163979   -0.734493
  32 H     1.0000    0     1.008   -5.002192   -5.573859    0.657324
  33 H     1.0000    0     1.008  -14.540269   11.000954   -1.008675
  34 H     1.0000    0     1.008   -8.295533  -10.356090    0.903616
  35 H     1.0000    0     1.008   -4.433498  -12.414769    1.196106
  36 H     1.0000    0     1.008   -2.710451   -9.644238    1.045846

--------------------------------
INTERNAL COORDINATES (ANGSTROEM)
--------------------------------
 C      0   0   0     0.000000000000     0.00000000     0.00000000
 C      1   0   0     1.411902241622     0.00000000     0.00000000
 C      2   1   0     1.382641266378   122.10108111     0.00000000
 C      3   2   1     1.410045125208   120.77893094     0.02359048
 C      4   3   2     1.430213399623   121.80664735   179.83029514
 C      5   4   3     1.366273915545   121.45037214   180.07132056
 C      6   5   4     1.436114362403   122.09048498   359.95830931
 C      7   6   5     1.435559410915   122.49731020   179.97867390
 C      8   7   6     1.415262634545   117.48743678   179.96934519
 C      9   8   7     1.383373671631   122.45121314   359.97387395
 C     10   9   8     1.408488649469   121.22785260     0.06863943
 C     11  10   9     1.428646137803   122.21565859   179.93818565
 C     12  11  10     1.366509889795   121.74851302   180.12123246
 C      1   2   3     1.433777702293   118.64749367     0.18062251
 C      4   3   2     1.429496930525   119.27949060   359.86254675
 C     11  10   9     1.427212418715   118.68803908   359.95430807
 C      1   2   3     1.459316845537   120.33917761   180.37830139
 C      8   7   6     1.458548039720   121.40344228   359.96780897
 C     17   1   2     1.358353540920   127.27993986     0.20358029
 C     18   8   7     1.360507880148   126.26622051   179.95791581
 C     19  17   1     1.425549416858   122.20434046   179.72926671
 N     20  18   8     1.364092896106   125.77858865   179.97864075
 N     21  19  17     1.163803433020   179.14571066   180.30993476
 H      2   1   3     1.091665445248   119.38855761   179.94861874
 H      3   2   1     1.093276862725   120.07774348   179.93473025
 H      5   4   3     1.093514714870   118.45229749     0.02397698
 H      6   5   4     1.089554868635   118.22600030   179.97480831
 H      9   8   7     1.091786804431   119.49109035   179.97374946
 H     10   9   8     1.093855327212   119.76307569   180.04441564
 H     12  11  10     1.093869442552   118.43010901     0.10105477
 H     13  12  11     1.089430869463   118.35032541   179.97352226
 H     17   1   2     1.090955282915   117.00168026   180.01101528
 H     18   8   7     1.091949634321   117.65489074   359.94792666
 H     19  17   1     1.093579254778   122.24474723   359.87091048
 H     20  18   8     1.093926586109   120.97374560     0.00000000
 H     22  20  18     1.008767989798   121.09050878   179.96879229
 H     22  20  18     1.011487543787   121.27851401     0.00000000

---------------------------
INTERNAL COORDINATES (A.U.)
---------------------------
 C      0   0   0     0.000000000000     0.00000000     0.00000000
 C      1   0   0     2.668108564534     0.00000000     0.00000000
 C      2   1   0     2.612813334912   122.10108111     0.00000000
 C      3   2   1     2.664599123113   120.77893094     0.02359048
 C      4   3   2     2.702711638352   121.80664735   179.83029514
 C      5   4   3     2.581883524300   121.45037214   180.07132056
 C      6   5   4     2.713862841932   122.09048498   359.95830931
 C      7   6   5     2.712814135602   122.49731020   179.97867390
 C      8   7   6     2.674458786861   117.48743678   179.96934519
 C      9   8   7     2.614197380260   122.45121314   359.97387395
 C     10   9   8     2.661657810233   121.22785260     0.06863943
 C     11  10   9     2.699749942731   122.21565859   179.93818565
 C     12  11  10     2.582329451007   121.74851302   180.12123246
 C      1   2   3     2.709447194258   118.64749367     0.18062251
 C      4   3   2     2.701357707972   119.27949060   359.86254675
 C     11  10   9     2.697040606302   118.68803908   359.95430807
 C      1   2   3     2.757709180683   120.33917761   180.37830139
 C      8   7   6     2.756256348238   121.40344228   359.96780897
 C     17   1   2     2.566916185380   127.27993986     0.20358029
 C     18   8   7     2.570987296522   126.26622051   179.95791581
 C     19  17   1     2.693897988233   122.20434046   179.72926671
 N     20  18   8     2.577761994867   125.77858865   179.97864075
 N     21  19  17     2.199269762126   179.14571066   180.30993476
 H      2   1   3     2.062948721384   119.38855761   179.94861874
 H      3   2   1     2.065993859102   120.07774348   179.93473025
 H      5   4   3     2.066443334517   118.45229749     0.02397698
 H      6   5   4     2.058960309600   118.22600030   179.97480831
 H      9   8   7     2.063178057004   119.49109035   179.97374946
 H     10   9   8     2.067086998561   119.76307569   180.04441564
 H     12  11  10     2.067113672689   118.43010901     0.10105477
 H     13  12  11     2.058725985125   118.35032541   179.97352226
 H     17   1   2     2.061606709065   117.00168026   180.01101528
 H     18   8   7     2.063485760901   117.65489074   359.94792666
 H     19  17   1     2.066565297268   122.24474723   359.87091048
 H     20  18   8     2.067221658360   120.97374560     0.00000000
 H     22  20  18     1.906295233384   121.09050878   179.96879229
 H     22  20  18     1.911434445630   121.27851401     0.00000000

---------------------
BASIS SET INFORMATION
---------------------
There are 3 groups of distinct atoms

 Group   1 Type C   : 7s4p1d contracted to 3s2p1d pattern {511/31/1}
 Group   2 Type N   : 7s4p1d contracted to 3s2p1d pattern {511/31/1}
 Group   3 Type H   : 4s1p contracted to 2s1p pattern {31/1}

Atom   0C    basis set group =>   1
Atom   1C    basis set group =>   1
Atom   2C    basis set group =>   1
Atom   3C    basis set group =>   1
Atom   4C    basis set group =>   1
Atom   5C    basis set group =>   1
Atom   6C    basis set group =>   1
Atom   7C    basis set group =>   1
Atom   8C    basis set group =>   1
Atom   9C    basis set group =>   1
Atom  10C    basis set group =>   1
Atom  11C    basis set group =>   1
Atom  12C    basis set group =>   1
Atom  13C    basis set group =>   1
Atom  14C    basis set group =>   1
Atom  15C    basis set group =>   1
Atom  16C    basis set group =>   1
Atom  17C    basis set group =>   1
Atom  18C    basis set group =>   1
Atom  19C    basis set group =>   1
Atom  20C    basis set group =>   1
Atom  21N    basis set group =>   2
Atom  22N    basis set group =>   2
Atom  23H    basis set group =>   3
Atom  24H    basis set group =>   3
Atom  25H    basis set group =>   3
Atom  26H    basis set group =>   3
Atom  27H    basis set group =>   3
Atom  28H    basis set group =>   3
Atom  29H    basis set group =>   3
Atom  30H    basis set group =>   3
Atom  31H    basis set group =>   3
Atom  32H    basis set group =>   3
Atom  33H    basis set group =>   3
Atom  34H    basis set group =>   3
Atom  35H    basis set group =>   3
Atom  36H    basis set group =>   3
---------------------------------
AUXILIARY/J BASIS SET INFORMATION
---------------------------------
There are 3 groups of distinct atoms

 Group   1 Type C   : 12s5p4d2f1g contracted to 6s4p3d1f1g pattern {711111/2111/211/2/1}
 Group   2 Type N   : 12s5p4d2f1g contracted to 6s4p3d1f1g pattern {711111/2111/211/2/1}
 Group   3 Type H   : 5s2p1d contracted to 3s1p1d pattern {311/2/1}

Atom   0C    basis set group =>   1
Atom   1C    basis set group =>   1
Atom   2C    basis set group =>   1
Atom   3C    basis set group =>   1
Atom   4C    basis set group =>   1
Atom   5C    basis set group =>   1
Atom   6C    basis set group =>   1
Atom   7C    basis set group =>   1
Atom   8C    basis set group =>   1
Atom   9C    basis set group =>   1
Atom  10C    basis set group =>   1
Atom  11C    basis set group =>   1
Atom  12C    basis set group =>   1
Atom  13C    basis set group =>   1
Atom  14C    basis set group =>   1
Atom  15C    basis set group =>   1
Atom  16C    basis set group =>   1
Atom  17C    basis set group =>   1
Atom  18C    basis set group =>   1
Atom  19C    basis set group =>   1
Atom  20C    basis set group =>   1
Atom  21N    basis set group =>   2
Atom  22N    basis set group =>   2
Atom  23H    basis set group =>   3
Atom  24H    basis set group =>   3
Atom  25H    basis set group =>   3
Atom  26H    basis set group =>   3
Atom  27H    basis set group =>   3
Atom  28H    basis set group =>   3
Atom  29H    basis set group =>   3
Atom  30H    basis set group =>   3
Atom  31H    basis set group =>   3
Atom  32H    basis set group =>   3
Atom  33H    basis set group =>   3
Atom  34H    basis set group =>   3
Atom  35H    basis set group =>   3
Atom  36H    basis set group =>   3


           ************************************************************
           *        Program running with 8 parallel MPI-processes     *
           *              working on a common directory               *
           ************************************************************
------------------------------------------------------------------------------
                           ORCA GTO INTEGRAL CALCULATION
                           -- RI-GTO INTEGRALS CHOSEN --
------------------------------------------------------------------------------
------------------------------------------------------------------------------
                   ___                                                        
                  /   \      - P O W E R E D   B Y -                         
                 /     \                                                     
                 |  |  |   _    _      __       _____    __    __             
                 |  |  |  | |  | |    /  \     |  _  \  |  |  /  |          
                  \  \/   | |  | |   /    \    | | | |  |  | /  /          
                 / \  \   | |__| |  /  /\  \   | |_| |  |  |/  /          
                |  |  |   |  __  | /  /__\  \  |    /   |      \           
                |  |  |   | |  | | |   __   |  |    \   |  |\   \          
                \     /   | |  | | |  |  |  |  | |\  \  |  | \   \       
                 \___/    |_|  |_| |__|  |__|  |_| \__\ |__|  \__/        
                                                                              
                      - O R C A' S   B I G   F R I E N D -                    
                                      &                                       
                       - I N T E G R A L  F E E D E R -                       
                                                                              
 v1 FN, 2020, v2 2021                                                         
------------------------------------------------------------------------------


Reading SHARK input file NC_NH2_2.SHARKINP.tmp ... ok
----------------------
SHARK INTEGRAL PACKAGE
----------------------

Number of atoms                             ...     37
Number of basis functions                   ...    392
Number of shells                            ...    180
Maximum angular momentum                    ...      2
Integral batch strategy                     ... SHARK/LIBINT Hybrid
RI-J (if used) integral strategy            ... SPLIT-RIJ (Revised 2003 algorithm where possible)
Printlevel                                  ...      1
Contraction scheme used                     ... SEGMENTED contraction
Coulomb Range Separation                    ... NOT USED
Exchange Range Separation                   ... NOT USED
Finite Nucleus Model                        ... NOT USED
Auxiliary Coulomb fitting basis             ... AVAILABLE
   # of basis functions in Aux-J            ...   1281
   # of shells in Aux-J                     ...    415
   Maximum angular momentum in Aux-J        ...      4
Auxiliary J/K fitting basis                 ... NOT available
Auxiliary Correlation fitting basis         ... NOT available
Auxiliary 'external' fitting basis          ... NOT available
Integral threshold                          ...     1.000000e-12
Primitive cut-off                           ...     1.000000e-14
Primitive pair pre-selection threshold      ...     1.000000e-14

Calculating pre-screening integrals         ... done (  0.0 sec) Dimension = 180
Organizing shell pair data                  ... done (  8.1 sec)
Shell pair information
Total number of shell pairs                 ...     16290
Shell pairs after pre-screening             ...     12138
Total number of primitive shell pairs       ...     60372
Primitive shell pairs kept                  ...     29231
          la=0 lb=0:   3567 shell pairs
          la=1 lb=0:   4449 shell pairs
          la=1 lb=1:   1426 shell pairs
          la=2 lb=0:   1537 shell pairs
          la=2 lb=1:    974 shell pairs
          la=2 lb=2:    185 shell pairs

Calculating one electron integrals          ... done (  0.0 sec)
Calculating RI/J V-Matrix + Cholesky decomp.... done (  2.2 sec)
Calculating Nuclear repulsion               ... done (  0.0 sec) ENN=   1622.089717977529 Eh

SHARK setup successfully completed in  12.3 seconds

Maximum memory used throughout the entire GTOINT-calculation: 21.8 MB


           ************************************************************
           *        Program running with 8 parallel MPI-processes     *
           *              working on a common directory               *
           ************************************************************
-------------------------------------------------------------------------------
                                 ORCA SCF
-------------------------------------------------------------------------------

------------
SCF SETTINGS
------------
Hamiltonian:
 Density Functional     Method          .... DFT(GTOs)
 Exchange Functional    Exchange        .... B88
   X-Alpha parameter    XAlpha          ....  0.666667
   Becke's b parameter  XBeta           ....  0.004200
 Correlation Functional Correlation     .... LYP
 LDA part of GGA corr.  LDAOpt          .... VWN-5
 Gradients option       PostSCFGGA      .... off
 Hybrid DFT is turned on
   Fraction HF Exchange ScalHFX         ....  0.200000
   Scaling of DF-GGA-X  ScalDFX         ....  0.720000
   Scaling of DF-GGA-C  ScalDFC         ....  0.810000
   Scaling of DF-LDA-C  ScalLDAC        ....  1.000000
   Perturbative correction              ....  0.000000
   Density functional embedding theory  .... OFF
   NL short-range parameter             ....  4.800000
 RI-approximation to the Coulomb term is turned on
   Number of AuxJ basis functions       .... 1281
   RIJ-COSX (HFX calculated with COS-X)).... on


General Settings:
 Integral files         IntName         .... NC_NH2_2
 Hartree-Fock type      HFTyp           .... RHF
 Total Charge           Charge          ....    0
 Multiplicity           Mult            ....    1
 Number of Electrons    NEL             ....  154
 Basis Dimension        Dim             ....  392
 Nuclear Repulsion      ENuc            ....   1622.0897179775 Eh

Convergence Acceleration:
 DIIS                   CNVDIIS         .... on
   Start iteration      DIISMaxIt       ....     0
   Startup error        DIISStart       ....  0.200000
   # of expansion vecs  DIISMaxEq       ....     5
   Bias factor          DIISBfac        ....   1.050
   Max. coefficient     DIISMaxC        ....  10.000
 Trust-Rad. Augm. Hess. CNVTRAH         .... auto
   Auto Start mean grad. ratio tolernc. ....  1.125000
   Auto Start start iteration           ....    20
   Auto Start num. interpolation iter.  ....    10
   Max. Number of Micro iterations      ....    16
   Max. Number of Macro iterations      .... Maxiter - #DIIS iter
   Number of Davidson start vectors     ....     2
   Converg. threshold I  (grad. norm)   ....   2.000e-06
   Converg. threshold II (energy diff.) ....   1.000e-09
   Grad. Scal. Fac. for Micro threshold ....   0.100
   Minimum threshold for Micro iter.    ....   0.010
   NR start threshold (gradient norm)   ....   0.001
   Initial trust radius                 ....   0.400
   Minimum AH scaling param. (alpha)    ....   1.000
   Maximum AH scaling param. (alpha)    .... 1000.000
   Orbital update algorithm             .... Taylor
   White noise on init. David. guess    .... on
   Maximum white noise                  ....   0.010
   Quad. conv. algorithm                .... NR
 SOSCF                  CNVSOSCF        .... on
   Start iteration      SOSCFMaxIt      ....   150
   Startup grad/error   SOSCFStart      ....  0.001000
 Level Shifting         CNVShift        .... on
   Level shift para.    LevelShift      ....    0.2500
   Turn off err/grad.   ShiftErr        ....    0.0000
 Zerner damping         CNVZerner       .... off
 Static damping         CNVDamp         .... on
   Fraction old density DampFac         ....    0.8500
   Max. Damping (<1)    DampMax         ....    0.9800
   Min. Damping (>=0)   DampMin         ....    0.0000
   Turn off err/grad.   DampErr         ....    0.0300
 Fernandez-Rico         CNVRico         .... off

SCF Procedure:
 Maximum # iterations   MaxIter         ....   125
 SCF integral mode      SCFMode         .... Direct
   Integral package                     .... SHARK and LIBINT hybrid scheme
 Reset frequency        DirectResetFreq ....    20
 Integral Threshold     Thresh          ....  1.000e-12 Eh
 Primitive CutOff       TCut            ....  1.000e-14 Eh

Convergence Tolerance:
 Convergence Check Mode ConvCheckMode   .... Total+1el-Energy
 Convergence forced     ConvForced      .... 0
 Energy Change          TolE            ....  1.000e-09 Eh
 1-El. energy change                    ....  1.000e-06 Eh
 Orbital Gradient       TolG            ....  2.000e-06
 Orbital Rotation angle TolX            ....  2.000e-06
 DIIS Error             TolErr          ....  1.000e-08


Diagonalization of the overlap matrix:
Smallest eigenvalue                        ... 1.988e-04
Time for diagonalization                   ...    0.025 sec
Threshold for overlap eigenvalues          ... 1.000e-08
Number of eigenvalues below threshold      ... 0
Time for construction of square roots      ...    0.026 sec
Total time needed                          ...    0.053 sec

Time for model grid setup =    1.073 sec

------------------------------
INITIAL GUESS: MODEL POTENTIAL
------------------------------
Loading Hartree-Fock densities                     ... done
Calculating cut-offs                               ... done
Initializing the effective Hamiltonian             ... done
Setting up the integral package (SHARK)            ... done
Starting the Coulomb interaction                   ... done (   0.2 sec)
Reading the grid                                   ... done
Mapping shells                                     ... done
Starting the XC term evaluation                    ... done (   0.1 sec)
  promolecular density results
     # of electrons  =    153.989686075
     EX              =   -125.230067664
     EC              =     -5.209630388
     EX+EC           =   -130.439698052
Transforming the Hamiltonian                       ... done (   0.0 sec)
Diagonalizing the Hamiltonian                      ... done (   0.0 sec)
Back transforming the eigenvectors                 ... done (   0.0 sec)
Now organizing SCF variables                       ... done
                      ------------------
                      INITIAL GUESS DONE (   1.5 sec)
                      ------------------
-------------------
DFT GRID GENERATION
-------------------

General Integration Accuracy     IntAcc      ... 4.959
Radial Grid Type                 RadialGrid  ... OptM3 with GC (2021)
Angular Grid (max. ang.)         AngularGrid ... 6 (Lebedev-590)
Angular grid pruning method      GridPruning ... 4 (adaptive)
Weight generation scheme         WeightScheme... Becke
Basis function cutoff            BFCut       ... 1.0000e-12
Integration weight cutoff        WCut        ... 1.0000e-14
Angular grids for H and He will be reduced by one unit
Partially contracted basis set               ... off
Rotationally invariant grid construction     ... off

Total number of grid points                  ...   445161
Total number of batches                      ...     6979
Average number of points per batch           ...       63
Average number of grid points per atom       ...    12031
Time for grid setup =   14.204 sec

--------------------
COSX GRID GENERATION
--------------------

GRIDX 1
-------
General Integration Accuracy     IntAcc      ... 4.020
Radial Grid Type                 RadialGrid  ... OptM3 with GC (2021)
Angular Grid (max. ang.)         AngularGrid ... 2 (Lebedev-110)
Angular grid pruning method      GridPruning ... 4 (adaptive)
Weight generation scheme         WeightScheme... Becke
Basis function cutoff            BFCut       ... 1.0000e-12
Integration weight cutoff        WCut        ... 1.0000e-14
Angular grids for H and He will be reduced by one unit
Partially contracted basis set               ... on
Rotationally invariant grid construction     ... off

Total number of grid points                  ...    50718
Total number of batches                      ...      812
Average number of points per batch           ...       62
Average number of grid points per atom       ...     1371
UseSFitting                                  ... on

GRIDX 2
-------
General Integration Accuracy     IntAcc      ... 4.338
Radial Grid Type                 RadialGrid  ... OptM3 with GC (2021)
Angular Grid (max. ang.)         AngularGrid ... 3 (Lebedev-194)
Angular grid pruning method      GridPruning ... 4 (adaptive)
Weight generation scheme         WeightScheme... Becke
Basis function cutoff            BFCut       ... 1.0000e-12
Integration weight cutoff        WCut        ... 1.0000e-14
Angular grids for H and He will be reduced by one unit
Partially contracted basis set               ... on
Rotationally invariant grid construction     ... off

Total number of grid points                  ...   111353
Total number of batches                      ...     1759
Average number of points per batch           ...       63
Average number of grid points per atom       ...     3010
UseSFitting                                  ... on

GRIDX 3
-------
General Integration Accuracy     IntAcc      ... 4.871
Radial Grid Type                 RadialGrid  ... OptM3 with GC (2021)
Angular Grid (max. ang.)         AngularGrid ... 4 (Lebedev-302)
Angular grid pruning method      GridPruning ... 4 (adaptive)
Weight generation scheme         WeightScheme... Becke
Basis function cutoff            BFCut       ... 1.0000e-12
Integration weight cutoff        WCut        ... 1.0000e-14
Angular grids for H and He will be reduced by one unit
Partially contracted basis set               ... on
Rotationally invariant grid construction     ... off

Total number of grid points                  ...   206188
Total number of batches                      ...     3241
Average number of points per batch           ...       63
Average number of grid points per atom       ...     5573
UseSFitting                                  ... on

Time for X-Grid setup             =    7.064 sec

--------------
SCF ITERATIONS
--------------
ITER       Energy         Delta-E        Max-DP      RMS-DP      [F,P]     Damp
               ***  Starting incremental Fock matrix formation  ***
  0   -916.5023948049   0.000000000000 0.04524411  0.00102093  0.2281230 0.8500
  1   -916.6149552641  -0.112560459272 0.03947376  0.00091868  0.1554007 0.8500
                               ***Turning on DIIS***
  2   -916.6902133088  -0.075258044625 0.02793510  0.00072445  0.1032188 0.8500
  3   -916.7394503633  -0.049237054499 0.01359364  0.00049954  0.0700407 0.8500
  4   -916.7761347600  -0.036684396760 0.01173023  0.00037975  0.0537115 0.8500
  5   -916.8044137072  -0.028278947158 0.01033491  0.00030776  0.0442283 0.8500
  6   -916.8272875681  -0.022873860961 0.00908182  0.00025747  0.0372925 0.8500
  7   -916.8461930457  -0.018905477520 0.00797413  0.00021904  0.0316096 0.8500
  8   -916.8620018734  -0.015808827750 0.04611865  0.00124811  0.0264524 0.0000
  9   -916.9465203459  -0.084518472527 0.00518023  0.00005207  0.0059947 0.0000
 10   -916.9465503650  -0.000030019052 0.00231086  0.00002172  0.0061753 0.0000
 11   -916.9466001668  -0.000049801804 0.00039036  0.00000974  0.0013580 0.0000
                      *** Initiating the SOSCF procedure ***
                           *** Shutting down DIIS ***
                      *** Re-Reading the Fockian *** 
                      *** Removing any level shift *** 
ITER      Energy       Delta-E        Grad      Rot      Max-DP    RMS-DP
 12   -916.94660443  -0.0000042679  0.000116  0.000116  0.000246  0.000004
               *** Restarting incremental Fock matrix formation ***
 13   -916.94658623   0.0000182044  0.000053  0.000502  0.000149  0.000004
 14   -916.94658637  -0.0000001402  0.000075  0.000456  0.000134  0.000004
 15   -916.94658642  -0.0000000509  0.000048  0.000379  0.000076  0.000002
 16   -916.94658649  -0.0000000693  0.000016  0.000077  0.000073  0.000001
 17   -916.94658649   0.0000000054  0.000018  0.000062  0.000038  0.000001
 18   -916.94658650  -0.0000000160  0.000006  0.000023  0.000027  0.000000
 19   -916.94658650   0.0000000018  0.000009  0.000017  0.000017  0.000000
 20   -916.94658650  -0.0000000031  0.000001  0.000005  0.000006  0.000000
 21   -916.94658650  -0.0000000002  0.000001  0.000004  0.000004  0.000000
                  ***Gradient check signals convergence***
              ***Rediagonalizing the Fockian in SOSCF/NRSCF***

               *****************************************************
               *                     SUCCESS                       *
               *           SCF CONVERGED AFTER  22 CYCLES          *
               *****************************************************

Old exchange energy                            =    -25.356084264 Eh
New exchange energy                            =    -25.356074779 Eh
Exchange energy change after final integration =      0.000009484 Eh
Total energy after final integration           =   -916.946577018 Eh
Final COS-X integration done in                =    17.214 sec

----------------
TOTAL SCF ENERGY
----------------

Total Energy       :         -916.94657702 Eh          -24951.38486 eV

Components:
Nuclear Repulsion  :         1622.08971798 Eh           44139.30523 eV
Electronic Energy  :        -2539.03629500 Eh          -69090.69009 eV
One Electron Energy:        -4460.71863054 Eh         -121382.32490 eV
Two Electron Energy:         1921.68233555 Eh           52291.63481 eV
Max COSX asymmetry :            0.00000047 Eh               0.00001 eV

Virial components:
Potential Energy   :        -1824.16776339 Eh          -49638.12840 eV
Kinetic Energy     :          907.22118637 Eh           24686.74353 eV
Virial Ratio       :            2.01071998


DFT components:
N(Alpha)           :       76.999997299295 electrons
N(Beta)            :       76.999997299295 electrons
N(Total)           :      153.999994598589 electrons
E(X)               :     -100.741274202855 Eh       
E(C)               :       -6.139429631816 Eh       
E(XC)              :     -106.880703834671 Eh       
DFET-embed. en.    :        0.000000000000 Eh       

---------------
SCF CONVERGENCE
---------------

  Last Energy change         ...    2.5580e-10  Tolerance :   1.0000e-09
  Last MAX-Density change    ...    4.4409e-15  Tolerance :   1.0000e-08
  Last RMS-Density change    ...    4.0072e-17  Tolerance :   1.0000e-09
  Last Orbital Gradient      ...    2.8795e-07  Tolerance :   2.0000e-06
  Last Orbital Rotation      ...    8.8865e-07  Tolerance :   2.0000e-06

             **** THE GBW FILE WAS UPDATED (NC_NH2_2.gbw) ****
             **** DENSITY NC_NH2_2.scfp WAS UPDATED ****
             **** ENERGY FILE WAS UPDATED (NC_NH2_2.en.tmp) ****
             **** THE GBW FILE WAS UPDATED (NC_NH2_2.gbw) ****
             **** DENSITY NC_NH2_2.scfp WAS UPDATED ****
----------------
ORBITAL ENERGIES
----------------

  NO   OCC          E(Eh)            E(eV) 
   0   2.0000     -14.363755      -390.8577 
   1   2.0000     -14.308501      -389.3541 
   2   2.0000     -10.243157      -278.7305 
   3   2.0000     -10.217337      -278.0279 
   4   2.0000     -10.215527      -277.9786 
   5   2.0000     -10.210747      -277.8486 
   6   2.0000     -10.207980      -277.7733 
   7   2.0000     -10.207730      -277.7664 
   8   2.0000     -10.204424      -277.6765 
   9   2.0000     -10.201918      -277.6083 
  10   2.0000     -10.201602      -277.5997 
  11   2.0000     -10.199551      -277.5439 
  12   2.0000     -10.199073      -277.5309 
  13   2.0000     -10.196654      -277.4651 
  14   2.0000     -10.195502      -277.4337 
  15   2.0000     -10.194311      -277.4013 
  16   2.0000     -10.193815      -277.3878 
  17   2.0000     -10.193132      -277.3692 
  18   2.0000     -10.192796      -277.3601 
  19   2.0000     -10.192500      -277.3520 
  20   2.0000     -10.191002      -277.3112 
  21   2.0000     -10.190255      -277.2909 
  22   2.0000     -10.181304      -277.0474 
  23   2.0000      -0.926518       -25.2118 
  24   2.0000      -0.886962       -24.1355 
  25   2.0000      -0.878240       -23.8981 
  26   2.0000      -0.851676       -23.1753 
  27   2.0000      -0.827142       -22.5077 
  28   2.0000      -0.812756       -22.1162 
  29   2.0000      -0.784655       -21.3515 
  30   2.0000      -0.771995       -21.0070 
  31   2.0000      -0.744866       -20.2688 
  32   2.0000      -0.736830       -20.0502 
  33   2.0000      -0.723440       -19.6858 
  34   2.0000      -0.700907       -19.0726 
  35   2.0000      -0.651922       -17.7397 
  36   2.0000      -0.635660       -17.2972 
  37   2.0000      -0.628171       -17.0934 
  38   2.0000      -0.613816       -16.7028 
  39   2.0000      -0.599518       -16.3137 
  40   2.0000      -0.586745       -15.9661 
  41   2.0000      -0.554571       -15.0906 
  42   2.0000      -0.545530       -14.8446 
  43   2.0000      -0.528049       -14.3689 
  44   2.0000      -0.520517       -14.1640 
  45   2.0000      -0.509613       -13.8673 
  46   2.0000      -0.503968       -13.7137 
  47   2.0000      -0.492051       -13.3894 
  48   2.0000      -0.476706       -12.9718 
  49   2.0000      -0.465878       -12.6772 
  50   2.0000      -0.448537       -12.2053 
  51   2.0000      -0.443795       -12.0763 
  52   2.0000      -0.437776       -11.9125 
  53   2.0000      -0.421572       -11.4715 
  54   2.0000      -0.417100       -11.3499 
  55   2.0000      -0.416397       -11.3307 
  56   2.0000      -0.404362       -11.0032 
  57   2.0000      -0.399665       -10.8754 
  58   2.0000      -0.394171       -10.7259 
  59   2.0000      -0.385113       -10.4795 
  60   2.0000      -0.384798       -10.4709 
  61   2.0000      -0.378569       -10.3014 
  62   2.0000      -0.371054       -10.0969 
  63   2.0000      -0.358137        -9.7454 
  64   2.0000      -0.355360        -9.6698 
  65   2.0000      -0.347040        -9.4434 
  66   2.0000      -0.342318        -9.3149 
  67   2.0000      -0.335472        -9.1287 
  68   2.0000      -0.322139        -8.7659 
  69   2.0000      -0.318070        -8.6551 
  70   2.0000      -0.316839        -8.6216 
  71   2.0000      -0.291004        -7.9186 
  72   2.0000      -0.271277        -7.3818 
  73   2.0000      -0.259844        -7.0707 
  74   2.0000      -0.237041        -6.4502 
  75   2.0000      -0.224270        -6.1027 
  76   2.0000      -0.181952        -4.9512 
  77   0.0000      -0.082656        -2.2492 
  78   0.0000      -0.042579        -1.1586 
  79   0.0000      -0.032926        -0.8960 
  80   0.0000      -0.011292        -0.3073 
  81   0.0000       0.014317         0.3896 
  82   0.0000       0.029966         0.8154 
  83   0.0000       0.033798         0.9197 
  84   0.0000       0.042518         1.1570 
  85   0.0000       0.049867         1.3569 
  86   0.0000       0.067255         1.8301 
  87   0.0000       0.068210         1.8561 
  88   0.0000       0.076588         2.0841 
  89   0.0000       0.084720         2.3054 
  90   0.0000       0.088517         2.4087 
  91   0.0000       0.103395         2.8135 
  92   0.0000       0.107608         2.9282 
  93   0.0000       0.109556         2.9812 
  94   0.0000       0.125055         3.4029 
  95   0.0000       0.127365         3.4658 
  96   0.0000       0.133586         3.6351 
  97   0.0000       0.161827         4.4035 
  98   0.0000       0.164618         4.4795 
  99   0.0000       0.177536         4.8310 
 100   0.0000       0.196212         5.3392 
 101   0.0000       0.202735         5.5167 
 102   0.0000       0.217287         5.9127 
 103   0.0000       0.227671         6.1953 
 104   0.0000       0.236127         6.4253 
 105   0.0000       0.241862         6.5814 
 106   0.0000       0.244360         6.6494 
 107   0.0000       0.247090         6.7237 
 108   0.0000       0.252577         6.8730 
 109   0.0000       0.270228         7.3533 
 110   0.0000       0.273471         7.4415 
 111   0.0000       0.280258         7.6262 
 112   0.0000       0.286154         7.7866 
 113   0.0000       0.297668         8.1000 
 114   0.0000       0.301808         8.2126 
 115   0.0000       0.309822         8.4307 
 116   0.0000       0.319292         8.6884 
 117   0.0000       0.323896         8.8137 
 118   0.0000       0.329974         8.9791 
 119   0.0000       0.336648         9.1607 
 120   0.0000       0.341596         9.2953 
 121   0.0000       0.352305         9.5867 
 122   0.0000       0.360837         9.8189 
 123   0.0000       0.364550         9.9199 
 124   0.0000       0.368299        10.0219 
 125   0.0000       0.374042        10.1782 
 126   0.0000       0.388475        10.5709 
 127   0.0000       0.393302        10.7023 
 128   0.0000       0.406578        11.0635 
 129   0.0000       0.414172        11.2702 
 130   0.0000       0.430621        11.7178 
 131   0.0000       0.436723        11.8838 
 132   0.0000       0.442462        12.0400 
 133   0.0000       0.444241        12.0884 
 134   0.0000       0.454750        12.3744 
 135   0.0000       0.458683        12.4814 
 136   0.0000       0.463733        12.6188 
 137   0.0000       0.464674        12.6444 
 138   0.0000       0.471086        12.8189 
 139   0.0000       0.476821        12.9750 
 140   0.0000       0.476988        12.9795 
 141   0.0000       0.481596        13.1049 
 142   0.0000       0.483643        13.1606 
 143   0.0000       0.493348        13.4247 
 144   0.0000       0.497372        13.5342 
 145   0.0000       0.501728        13.6527 
 146   0.0000       0.507587        13.8121 
 147   0.0000       0.516234        14.0474 
 148   0.0000       0.526692        14.3320 
 149   0.0000       0.529311        14.4033 
 150   0.0000       0.533227        14.5098 
 151   0.0000       0.545248        14.8370 
 152   0.0000       0.550646        14.9839 
 153   0.0000       0.551655        15.0113 
 154   0.0000       0.568231        15.4623 
 155   0.0000       0.568665        15.4741 
 156   0.0000       0.575925        15.6717 
 157   0.0000       0.596861        16.2414 
 158   0.0000       0.598994        16.2995 
 159   0.0000       0.608138        16.5483 
 160   0.0000       0.623797        16.9744 
 161   0.0000       0.625763        17.0279 
 162   0.0000       0.626068        17.0362 
 163   0.0000       0.640336        17.4244 
 164   0.0000       0.641955        17.4685 
 165   0.0000       0.647517        17.6198 
 166   0.0000       0.653210        17.7748 
 167   0.0000       0.654205        17.8018 
 168   0.0000       0.655062        17.8251 
 169   0.0000       0.665969        18.1219 
 170   0.0000       0.667864        18.1735 
 171   0.0000       0.670578        18.2474 
 172   0.0000       0.673887        18.3374 
 173   0.0000       0.680123        18.5071 
 174   0.0000       0.689193        18.7539 
 175   0.0000       0.697388        18.9769 
 176   0.0000       0.698495        19.0070 
 177   0.0000       0.706783        19.2326 
 178   0.0000       0.716203        19.4889 
 179   0.0000       0.724594        19.7172 
 180   0.0000       0.727603        19.7991 
 181   0.0000       0.731902        19.9161 
 182   0.0000       0.738348        20.0915 
 183   0.0000       0.738937        20.1075 
 184   0.0000       0.754279        20.5250 
 185   0.0000       0.756219        20.5778 
 186   0.0000       0.761115        20.7110 
 187   0.0000       0.761721        20.7275 
 188   0.0000       0.768864        20.9219 
 189   0.0000       0.779838        21.2205 
 190   0.0000       0.791488        21.5375 
 191   0.0000       0.795804        21.6549 
 192   0.0000       0.801265        21.8035 
 193   0.0000       0.810171        22.0459 
 194   0.0000       0.822809        22.3898 
 195   0.0000       0.832915        22.6648 
 196   0.0000       0.845653        23.0114 
 197   0.0000       0.862572        23.4718 
 198   0.0000       0.863502        23.4971 
 199   0.0000       0.871233        23.7075 
 200   0.0000       0.884887        24.0790 
 201   0.0000       0.885374        24.0923 
 202   0.0000       0.895985        24.3810 
 203   0.0000       0.908420        24.7194 
 204   0.0000       0.930958        25.3327 
 205   0.0000       0.953246        25.9391 
 206   0.0000       0.987487        26.8709 
 207   0.0000       1.005816        27.3696 
 208   0.0000       1.018953        27.7271 
 209   0.0000       1.041268        28.3343 
 210   0.0000       1.064640        28.9703 
 211   0.0000       1.082561        29.4580 
 212   0.0000       1.098898        29.9025 
 213   0.0000       1.111314        30.2404 
 214   0.0000       1.131764        30.7969 
 215   0.0000       1.137759        30.9600 
 216   0.0000       1.152164        31.3520 
 217   0.0000       1.169862        31.8336 
 218   0.0000       1.170294        31.8453 
 219   0.0000       1.191938        32.4343 
 220   0.0000       1.198494        32.6127 
 221   0.0000       1.206810        32.8390 
 222   0.0000       1.211805        32.9749 
 223   0.0000       1.219097        33.1733 
 224   0.0000       1.225849        33.3571 
 225   0.0000       1.226379        33.3715 
 226   0.0000       1.234180        33.5837 
 227   0.0000       1.234717        33.5984 
 228   0.0000       1.238689        33.7064 
 229   0.0000       1.249546        34.0019 
 230   0.0000       1.251317        34.0501 
 231   0.0000       1.252778        34.0898 
 232   0.0000       1.268243        34.5106 
 233   0.0000       1.272098        34.6155 
 234   0.0000       1.276385        34.7322 
 235   0.0000       1.294582        35.2274 
 236   0.0000       1.296216        35.2718 
 237   0.0000       1.299710        35.3669 
 238   0.0000       1.308089        35.5949 
 239   0.0000       1.308583        35.6083 
 240   0.0000       1.337810        36.4037 
 241   0.0000       1.343826        36.5674 
 242   0.0000       1.346302        36.6348 
 243   0.0000       1.355956        36.8974 
 244   0.0000       1.356508        36.9125 
 245   0.0000       1.380269        37.5590 
 246   0.0000       1.389187        37.8017 
 247   0.0000       1.402010        38.1506 
 248   0.0000       1.413766        38.4705 
 249   0.0000       1.482358        40.3370 
 250   0.0000       1.507743        41.0278 
 251   0.0000       1.512664        41.1617 
 252   0.0000       1.527461        41.5643 
 253   0.0000       1.615421        43.9579 
 254   0.0000       1.618674        44.0464 
 255   0.0000       1.622417        44.1482 
 256   0.0000       1.629537        44.3420 
 257   0.0000       1.646309        44.7983 
 258   0.0000       1.648635        44.8616 
 259   0.0000       1.658877        45.1403 
 260   0.0000       1.660343        45.1802 
 261   0.0000       1.681352        45.7519 
 262   0.0000       1.681404        45.7533 
 263   0.0000       1.683423        45.8083 
 264   0.0000       1.685860        45.8746 
 265   0.0000       1.702147        46.3178 
 266   0.0000       1.714394        46.6510 
 267   0.0000       1.719412        46.7876 
 268   0.0000       1.726009        46.9671 
 269   0.0000       1.727220        47.0001 
 270   0.0000       1.733190        47.1625 
 271   0.0000       1.743491        47.4428 
 272   0.0000       1.748427        47.5771 
 273   0.0000       1.751894        47.6715 
 274   0.0000       1.761713        47.9387 
 275   0.0000       1.762533        47.9610 
 276   0.0000       1.767274        48.0900 
 277   0.0000       1.769485        48.1501 
 278   0.0000       1.770871        48.1879 
 279   0.0000       1.781768        48.4844 
 280   0.0000       1.791272        48.7430 
 281   0.0000       1.803102        49.0649 
 282   0.0000       1.818896        49.4947 
 283   0.0000       1.819733        49.5175 
 284   0.0000       1.825642        49.6782 
 285   0.0000       1.856708        50.5236 
 286   0.0000       1.863047        50.6961 
 287   0.0000       1.878633        51.1202 
 288   0.0000       1.891489        51.4700 
 289   0.0000       1.908258        51.9263 
 290   0.0000       1.910519        51.9879 
 291   0.0000       1.922508        52.3141 
 292   0.0000       1.932080        52.5746 
 293   0.0000       1.942072        52.8465 
 294   0.0000       1.957106        53.2556 
 295   0.0000       1.962561        53.4040 
 296   0.0000       1.972639        53.6782 
 297   0.0000       1.984523        54.0016 
 298   0.0000       1.993871        54.2560 
 299   0.0000       2.003982        54.5311 
 300   0.0000       2.007428        54.6249 
 301   0.0000       2.028393        55.1954 
 302   0.0000       2.041440        55.5504 
 303   0.0000       2.045279        55.6549 
 304   0.0000       2.052178        55.8426 
 305   0.0000       2.059403        56.0392 
 306   0.0000       2.070671        56.3458 
 307   0.0000       2.086502        56.7766 
 308   0.0000       2.091450        56.9112 
 309   0.0000       2.093385        56.9639 
 310   0.0000       2.103377        57.2358 
 311   0.0000       2.106501        57.3208 
 312   0.0000       2.144288        58.3490 
 313   0.0000       2.148376        58.4603 
 314   0.0000       2.154103        58.6161 
 315   0.0000       2.173917        59.1553 
 316   0.0000       2.188504        59.5522 
 317   0.0000       2.191511        59.6341 
 318   0.0000       2.208160        60.0871 
 319   0.0000       2.211356        60.1741 
 320   0.0000       2.217539        60.3423 
 321   0.0000       2.229271        60.6616 
 322   0.0000       2.229607        60.6707 
 323   0.0000       2.239670        60.9445 
 324   0.0000       2.258981        61.4700 
 325   0.0000       2.265953        61.6597 
 326   0.0000       2.266905        61.6856 
 327   0.0000       2.267619        61.7050 
 328   0.0000       2.285284        62.1857 
 329   0.0000       2.291400        62.3522 
 330   0.0000       2.301196        62.6187 
 331   0.0000       2.301552        62.6284 
 332   0.0000       2.309706        62.8503 
 333   0.0000       2.321094        63.1602 
 334   0.0000       2.355528        64.0972 
 335   0.0000       2.368737        64.4566 
 336   0.0000       2.374896        64.6242 
 337   0.0000       2.399234        65.2865 
 338   0.0000       2.419408        65.8354 
 339   0.0000       2.422154        65.9102 
 340   0.0000       2.448717        66.6330 
 341   0.0000       2.467035        67.1314 
 342   0.0000       2.480196        67.4896 
 343   0.0000       2.499363        68.0111 
 344   0.0000       2.522775        68.6482 
 345   0.0000       2.529607        68.8341 
 346   0.0000       2.548420        69.3460 
 347   0.0000       2.548984        69.3614 
 348   0.0000       2.575933        70.0947 
 349   0.0000       2.599228        70.7286 
 350   0.0000       2.600093        70.7521 
 351   0.0000       2.608215        70.9731 
 352   0.0000       2.630805        71.5878 
 353   0.0000       2.654605        72.2355 
 354   0.0000       2.665742        72.5385 
 355   0.0000       2.678228        72.8783 
 356   0.0000       2.682618        72.9978 
 357   0.0000       2.686888        73.1139 
 358   0.0000       2.689660        73.1894 
 359   0.0000       2.713124        73.8279 
 360   0.0000       2.727552        74.2205 
 361   0.0000       2.733540        74.3834 
 362   0.0000       2.764066        75.2141 
 363   0.0000       2.774239        75.4909 
 364   0.0000       2.777376        75.5762 
 365   0.0000       2.781974        75.7014 
 366   0.0000       2.821462        76.7759 
 367   0.0000       2.854494        77.6747 
 368   0.0000       2.866069        77.9897 
 369   0.0000       2.873809        78.2003 
 370   0.0000       2.901655        78.9580 
 371   0.0000       2.916632        79.3656 
 372   0.0000       2.949376        80.2566 
 373   0.0000       2.969680        80.8091 
 374   0.0000       2.972295        80.8803 
 375   0.0000       2.996967        81.5516 
 376   0.0000       3.013217        81.9938 
 377   0.0000       3.014907        82.0398 
 378   0.0000       3.017961        82.1229 
 379   0.0000       3.072921        83.6184 
 380   0.0000       3.108187        84.5781 
 381   0.0000       3.141055        85.4724 
 382   0.0000       3.189929        86.8024 
 383   0.0000       3.249417        88.4211 
 384   0.0000       3.280462        89.2659 
 385   0.0000       3.351994        91.2124 
 386   0.0000       3.378947        91.9458 
 387   0.0000       3.465656        94.3053 
 388   0.0000       3.509482        95.4979 
 389   0.0000       3.547595        96.5350 
 390   0.0000       3.590965        97.7151 
 391   0.0000       3.647782        99.2612 

                    ********************************
                    * MULLIKEN POPULATION ANALYSIS *
                    ********************************

-----------------------
MULLIKEN ATOMIC CHARGES
-----------------------
   0 C :    0.058645
   1 C :   -0.022812
   2 C :   -0.033595
   3 C :    0.072775
   4 C :   -0.016228
   5 C :   -0.030527
   6 C :    0.051678
   7 C :    0.104829
   8 C :   -0.049471
   9 C :   -0.023377
  10 C :    0.058169
  11 C :   -0.007131
  12 C :   -0.048366
  13 C :    0.085814
  14 C :    0.052973
  15 C :    0.068446
  16 C :    0.023548
  17 C :   -0.048584
  18 C :   -0.126370
  19 C :    0.038520
  20 C :   -0.099930
  21 N :   -0.089966
  22 N :    0.030352
  23 H :   -0.029009
  24 H :   -0.033578
  25 H :   -0.035885
  26 H :   -0.038735
  27 H :   -0.040292
  28 H :   -0.035100
  29 H :   -0.032469
  30 H :   -0.033168
  31 H :    0.001847
  32 H :   -0.049951
  33 H :    0.032690
  34 H :   -0.000546
  35 H :    0.125883
  36 H :    0.118920
Sum of atomic charges:    0.0000000

--------------------------------
MULLIKEN REDUCED ORBITAL CHARGES
--------------------------------
  0 C s       :     3.107342  s :     3.107342
      pz      :     1.022126  p :     2.793586
      px      :     0.830774
      py      :     0.940685
      dz2     :     0.003166  d :     0.040427
      dxz     :     0.005634
      dyz     :     0.005893
      dx2y2   :     0.012916
      dxy     :     0.012818
  1 C s       :     3.224412  s :     3.224412
      pz      :     0.973985  p :     2.763273
      px      :     0.971743
      py      :     0.817545
      dz2     :     0.002608  d :     0.035127
      dxz     :     0.007293
      dyz     :     0.002249
      dx2y2   :     0.012814
      dxy     :     0.010163
  2 C s       :     3.243852  s :     3.243852
      pz      :     1.004848  p :     2.755141
      px      :     0.811216
      py      :     0.939077
      dz2     :     0.002627  d :     0.034603
      dxz     :     0.003653
      dyz     :     0.005093
      dx2y2   :     0.011569
      dxy     :     0.011661
  3 C s       :     3.114774  s :     3.114774
      pz      :     0.955633  p :     2.769363
      px      :     0.960148
      py      :     0.853582
      dz2     :     0.003227  d :     0.043088
      dxz     :     0.005981
      dyz     :     0.007017
      dx2y2   :     0.013167
      dxy     :     0.013696
  4 C s       :     3.228287  s :     3.228287
[...]
     82       0.002500   0.001070  -0.000136
     83      -0.000194  -0.000079   0.000014
     84       0.004883   0.000516   0.000124
     85       0.003127   0.000228   0.000042
     86      -0.000062   0.000002   0.000001
     87       0.124510   0.000428   0.000092
     88       0.073082   0.000227   0.000048
     89      -0.001188  -0.000002  -0.000000
     90       0.740801  -0.000029   0.000010
     91      -0.415466  -0.000037  -0.000018
     92       0.059267   0.000001   0.000002
     93       0.419992   0.000135   0.000033
     94       0.258837   0.000113   0.000025
     95      -0.004529  -0.000003  -0.000001
     96      -0.004169  -0.001735   0.001496
     97      -0.002628   0.001074  -0.000940
     98       0.000053  -0.000150   0.000126
     99       0.043002   0.000083   0.000018
    100       0.033126   0.000088   0.000022
    101      -0.000987  -0.000004  -0.000001
    102      -0.000431   0.006812  -0.011780
    103      -0.000339   0.004025  -0.007919
    104       0.000011  -0.000067   0.000192
    105      -0.000010  -0.018214  -0.010517
    106       0.000154  -0.583661  -0.809406
    107      -0.000012   0.044981   0.062931
    108      -0.000107   0.717259  -0.516433
    109      -0.000045   0.373389  -0.257900
    110      -0.000000  -0.003038   0.001322


-----------
IR SPECTRUM
-----------

 Mode   freq       eps      Int      T**2         TX        TY        TZ
       cm**-1   L/(mol*cm) km/mol    a.u.
----------------------------------------------------------------------------
  9:     25.55   0.000001    0.00  0.000009  (-0.000218  0.000493  0.002980)
 10:     62.20   0.000864    4.37  0.004338  (-0.002470  0.005281  0.065601)
 11:     72.19   0.000225    1.14  0.000972  ( 0.016284  0.026514 -0.001917)
 12:     99.26   0.000010    0.05  0.000032  ( 0.000237 -0.000527 -0.005624)
 13:    123.14   0.000982    4.96  0.002488  ( 0.025606  0.042742 -0.002267)
 14:    141.69   0.000037    0.19  0.000082  ( 0.000143 -0.000548 -0.009031)
 15:    188.93   0.002632   13.30  0.004347  (-0.002529  0.005117  0.065683)
 16:    219.46   0.000634    3.20  0.000901  ( 0.001536 -0.001909 -0.029914)
 17:    220.83   0.000142    0.72  0.000201  (-0.010916 -0.009012 -0.000900)
 18:    256.34   0.000171    0.86  0.000208  ( 0.013283  0.005613 -0.000068)
 19:    260.57   0.000005    0.02  0.000006  ( 0.000319 -0.000360 -0.002299)
 20:    284.02   0.000206    1.04  0.000226  ( 0.000431 -0.001002 -0.014999)
 21:    315.19   0.001090    5.51  0.001079  (-0.019471  0.026309 -0.002826)
 22:    348.38   0.000229    1.16  0.000205  ( 0.011977 -0.007781  0.001087)
 23:    367.54   0.000666    3.36  0.000565  (-0.001044  0.002088  0.023657)
 24:    420.60   0.002594   13.11  0.001925  ( 0.024876 -0.035934  0.003802)
 25:    437.58   0.000338    1.71  0.000241  (-0.011867  0.009944 -0.001278)
 26:    447.52   0.000001    0.00  0.000000  (-0.000020 -0.000089 -0.000607)
 27:    490.91   0.000013    0.06  0.000008  ( 0.000099 -0.000144 -0.002835)
 28:    495.97   0.000927    4.69  0.000583  (-0.000970  0.001873  0.024061)
 29:    508.49   0.000048    0.24  0.000029  ( 0.002237 -0.004887  0.000517)
 30:    512.53   0.000707    3.58  0.000431  ( 0.005417 -0.019953  0.001813)
 31:    525.41   0.000009    0.05  0.000005  (-0.000096 -0.000241  0.002306)
 32:    529.72   0.001118    5.65  0.000658  ( 0.001565 -0.025537  0.001966)
 33:    562.33   0.000156    0.79  0.000087  ( 0.004326 -0.008199  0.000799)
 34:    563.67   0.000012    0.06  0.000007  ( 0.000133 -0.000365 -0.002544)
 35:    583.84   0.000233    1.18  0.000125  (-0.000485  0.000931  0.011110)
 36:    620.15   0.002052   10.37  0.001032  (-0.012738  0.029372 -0.002723)
 37:    633.23   0.000402    2.03  0.000198  ( 0.007075 -0.012098  0.001264)
 38:    679.29   0.000056    0.28  0.000026  (-0.000063  0.000319  0.005053)
 39:    702.75   0.000578    2.92  0.000256  ( 0.009205 -0.013036  0.001348)
 40:    716.69   0.000961    4.86  0.000419  (-0.000747  0.001465  0.020395)
 41:    752.86   0.002714   13.71  0.001125  ( 0.001230 -0.002624 -0.033413)
 42:    762.91   0.000265    1.34  0.000108  ( 0.006436 -0.008125  0.000906)
 43:    779.97   0.000088    0.44  0.000035  ( 0.003526 -0.004736  0.000497)
 44:    812.49   0.000134    0.68  0.000051  (-0.000176  0.000324 -0.007156)
 45:    813.65   0.005674   28.67  0.002176  (-0.020317  0.041817 -0.003831)
 46:    825.91   0.000612    3.09  0.000231  (-0.000565  0.001017  0.015166)
 47:    843.54   0.002345   11.85  0.000868  ( 0.001097 -0.002223 -0.029352)
 48:    853.04   0.000065    0.33  0.000024  ( 0.004823  0.000599  0.000119)
 49:    870.47   0.009399   47.50  0.003370  ( 0.002076 -0.004331 -0.057850)
 50:    882.01   0.000311    1.57  0.000110  (-0.000355  0.000916  0.010446)
 51:    889.40   0.002444   12.35  0.000858  (-0.001178  0.002331  0.029169)
 52:    944.37   0.000961    4.86  0.000318  ( 0.000736 -0.001391 -0.017753)
 53:    975.09   0.004160   21.02  0.001331  ( 0.001167 -0.002572 -0.036378)
 54:    978.04   0.007465   37.73  0.002382  (-0.022833  0.042949 -0.003998)
 55:    984.10   0.004291   21.68  0.001361  (-0.001402  0.002890  0.036746)
 56:    989.89   0.000005    0.02  0.000001  (-0.000037  0.000094  0.001196)
 57:   1000.07   0.001024    5.18  0.000320  (-0.000075 -0.000322 -0.017873)
 58:   1000.26   0.001159    5.86  0.000362  ( 0.010896 -0.015581  0.000452)
 59:   1009.49   0.000189    0.96  0.000059  (-0.000247  0.000558  0.007626)
 60:   1013.79   0.000017    0.09  0.000005  (-0.000061  0.000200  0.002299)
 61:   1037.93   0.000461    2.33  0.000138  (-0.008132  0.008456 -0.000922)
 62:   1056.46   0.004776   24.13  0.001411  ( 0.009754 -0.036133  0.003143)
 63:   1119.40   0.000210    1.06  0.000059  ( 0.001634 -0.007452  0.000609)
 64:   1133.64   0.000107    0.54  0.000029  ( 0.004042 -0.003578  0.000420)
 65:   1181.83   0.000039    0.20  0.000010  ( 0.000317 -0.003204  0.000240)
 66:   1189.11   0.000163    0.82  0.000043  ( 0.005108 -0.004050  0.000488)
 67:   1204.39   0.002243   11.33  0.000581  ( 0.005810 -0.023302  0.002076)
 68:   1211.47   0.003760   19.00  0.000968  ( 0.031001 -0.002338  0.001370)
 69:   1242.80   0.010329   52.20  0.002594  ( 0.033437 -0.038189  0.004156)
 70:   1260.77   0.105205  531.66  0.026040  ( 0.079041 -0.139999  0.013882)
 71:   1265.71   0.000489    2.47  0.000121  (-0.003391  0.010401 -0.000985)
 72:   1272.15   0.000014    0.07  0.000003  (-0.000638  0.001696 -0.000231)
 73:   1280.99   0.002830   14.30  0.000689  ( 0.020739 -0.015975  0.002046)
 74:   1296.85   0.010464   52.88  0.002518  (-0.033899  0.036766 -0.004130)
 75:   1332.46   0.022962  116.04  0.005378  ( 0.032547 -0.065414  0.006279)
 76:   1333.92   0.001519    7.68  0.000355  (-0.015824  0.010144 -0.001465)
 77:   1335.73   0.018010   91.01  0.004208  (-0.033147  0.055485 -0.005504)
 78:   1372.35   0.000039    0.20  0.000009  (-0.001541 -0.002531  0.000139)
 79:   1385.38   0.003419   17.28  0.000770  ( 0.025302 -0.011244  0.001867)
 80:   1404.94   0.001042    5.26  0.000231  ( 0.007007 -0.013438  0.001290)
 81:   1412.39   0.003052   15.42  0.000674  ( 0.011320 -0.023264  0.002231)
 82:   1425.27   0.003230   16.33  0.000707  (-0.002030  0.026430 -0.002158)
 83:   1444.19   0.002117   10.70  0.000458  (-0.011299  0.018070 -0.001826)
 84:   1468.42   0.001307    6.60  0.000278  (-0.013849  0.009189 -0.001202)
 85:   1506.67   0.000572    2.89  0.000118  ( 0.009518  0.005277 -0.000054)
 86:   1535.40   0.001887    9.54  0.000384  (-0.017241  0.009193 -0.001340)
 87:   1547.58   0.013167   66.54  0.002655  (-0.023617  0.045581 -0.004439)
 88:   1573.38   0.006762   34.17  0.001341  ( 0.024201 -0.027318  0.003047)
 89:   1609.89   0.002167   10.95  0.000420  (-0.020205 -0.003410 -0.000470)
 90:   1622.28   0.000222    1.12  0.000043  (-0.005416  0.003617 -0.000479)
 91:   1635.41   0.151640  766.32  0.028935  (-0.094940  0.140393 -0.014546)
 92:   1656.37   0.002552   12.90  0.000481  ( 0.013456  0.017285 -0.000985)
 93:   1661.72   0.034270  173.19  0.006436  ( 0.041696 -0.068184  0.006943)
 94:   1672.49   0.006679   33.75  0.001246  ( 0.010742 -0.033501  0.002925)
 95:   1711.18   0.185305  936.45  0.033794  (-0.103352  0.151231 -0.015524)
 96:   2334.78   0.034308  173.38  0.004586  (-0.042722  0.052218 -0.005803)
 97:   3167.73   0.000356    1.80  0.000035  ( 0.005815 -0.001068  0.000296)
 98:   3171.46   0.000203    1.03  0.000020  ( 0.003863 -0.002228  0.000325)
 99:   3171.83   0.003696   18.68  0.000364  (-0.019014 -0.001332 -0.000592)
100:   3174.00   0.005732   28.97  0.000564  (-0.022054  0.008650 -0.001521)
101:   3175.83   0.000033    0.17  0.000003  ( 0.000574  0.001712 -0.000084)
102:   3178.23   0.000649    3.28  0.000064  (-0.003371 -0.007225  0.000428)
103:   3181.38   0.001814    9.17  0.000178  ( 0.009205 -0.009596  0.001065)
104:   3194.36   0.005485   27.72  0.000536  ( 0.006860  0.022060 -0.001462)
105:   3198.36   0.002521   12.74  0.000246  (-0.006336 -0.014321  0.000855)
106:   3199.85   0.000315    1.59  0.000031  ( 0.003691 -0.004105  0.000476)
107:   3218.05   0.003706   18.73  0.000359  ( 0.018736 -0.002741  0.000919)
108:   3221.47   0.002821   14.26  0.000273  (-0.015464  0.005752 -0.001039)
109:   3607.74   0.057366  289.91  0.004962  ( 0.043753 -0.054893  0.005875)
110:   3736.83   0.015242   77.03  0.001273  (-0.003471 -0.035409  0.002642)

* The epsilon (eps) is given for a Dirac delta lineshape.
** The dipole moment derivative (T) already includes vibrational overlap.

The first frequency considered to be a vibration is 9
The total number of vibrations considered is 102


--------------------------
THERMOCHEMISTRY AT 298.15K
--------------------------

Temperature         ... 298.15 K
Pressure            ... 1.00 atm
Total Mass          ... 294.36 AMU

Throughout the following assumptions are being made:
  (1) The electronic state is orbitally nondegenerate
  (2) There are no thermally accessible electronically excited states
  (3) Hindered rotations indicated by low frequency modes are not
      treated as such but are treated as vibrations and this may
      cause some error
  (4) All equations used are the standard statistical mechanics
      equations for an ideal gas
  (5) All vibrations are strictly harmonic

freq.      25.55  E(vib)   ...       0.56 
freq.      62.20  E(vib)   ...       0.51 
freq.      72.19  E(vib)   ...       0.50 
freq.      99.26  E(vib)   ...       0.46 
freq.     123.14  E(vib)   ...       0.43 
freq.     141.69  E(vib)   ...       0.41 
freq.     188.93  E(vib)   ...       0.36 
freq.     219.46  E(vib)   ...       0.33 
freq.     220.83  E(vib)   ...       0.33 
freq.     256.34  E(vib)   ...       0.30 
freq.     260.57  E(vib)   ...       0.30 
freq.     284.02  E(vib)   ...       0.28 
freq.     315.19  E(vib)   ...       0.25 
freq.     348.38  E(vib)   ...       0.23 
freq.     367.54  E(vib)   ...       0.21 
freq.     420.60  E(vib)   ...       0.18 
freq.     437.58  E(vib)   ...       0.17 
freq.     447.52  E(vib)   ...       0.17 
freq.     490.91  E(vib)   ...       0.14 
freq.     495.97  E(vib)   ...       0.14 
freq.     508.49  E(vib)   ...       0.14 
freq.     512.53  E(vib)   ...       0.13 
freq.     525.41  E(vib)   ...       0.13 
freq.     529.72  E(vib)   ...       0.13 
freq.     562.33  E(vib)   ...       0.11 
freq.     563.67  E(vib)   ...       0.11 
freq.     583.84  E(vib)   ...       0.11 
freq.     620.15  E(vib)   ...       0.09 
freq.     633.23  E(vib)   ...       0.09 
freq.     679.29  E(vib)   ...       0.08 
freq.     702.75  E(vib)   ...       0.07 
freq.     716.69  E(vib)   ...       0.07 
freq.     752.86  E(vib)   ...       0.06 
freq.     762.91  E(vib)   ...       0.06 
freq.     779.97  E(vib)   ...       0.05 
freq.     812.49  E(vib)   ...       0.05 
freq.     813.65  E(vib)   ...       0.05 
freq.     825.91  E(vib)   ...       0.04 
freq.     843.54  E(vib)   ...       0.04 
freq.     853.04  E(vib)   ...       0.04 
freq.     870.47  E(vib)   ...       0.04 
freq.     882.01  E(vib)   ...       0.04 
freq.     889.40  E(vib)   ...       0.04 
freq.     944.37  E(vib)   ...       0.03 
freq.     975.09  E(vib)   ...       0.03 
freq.     978.04  E(vib)   ...       0.03 
freq.     984.10  E(vib)   ...       0.02 
freq.     989.89  E(vib)   ...       0.02 
freq.    1000.07  E(vib)   ...       0.02 
freq.    1000.26  E(vib)   ...       0.02 
freq.    1009.49  E(vib)   ...       0.02 
freq.    1013.79  E(vib)   ...       0.02 
freq.    1037.93  E(vib)   ...       0.02 
freq.    1056.46  E(vib)   ...       0.02 
freq.    1119.40  E(vib)   ...       0.01 
freq.    1133.64  E(vib)   ...       0.01 
freq.    1181.83  E(vib)   ...       0.01 
freq.    1189.11  E(vib)   ...       0.01 
freq.    1204.39  E(vib)   ...       0.01 
freq.    1211.47  E(vib)   ...       0.01 
freq.    1242.80  E(vib)   ...       0.01 
freq.    1260.77  E(vib)   ...       0.01 
freq.    1265.71  E(vib)   ...       0.01 
freq.    1272.15  E(vib)   ...       0.01 
freq.    1280.99  E(vib)   ...       0.01 
freq.    1296.85  E(vib)   ...       0.01 
freq.    1332.46  E(vib)   ...       0.01 
freq.    1333.92  E(vib)   ...       0.01 
freq.    1335.73  E(vib)   ...       0.01 
freq.    1372.35  E(vib)   ...       0.01 
freq.    1385.38  E(vib)   ...       0.00 
freq.    1404.94  E(vib)   ...       0.00 
freq.    1412.39  E(vib)   ...       0.00 
freq.    1425.27  E(vib)   ...       0.00 
freq.    1444.19  E(vib)   ...       0.00 
freq.    1468.42  E(vib)   ...       0.00 
freq.    1506.67  E(vib)   ...       0.00 
freq.    1535.40  E(vib)   ...       0.00 
freq.    1547.58  E(vib)   ...       0.00 
freq.    1573.38  E(vib)   ...       0.00 
freq.    1609.89  E(vib)   ...       0.00 
freq.    1622.28  E(vib)   ...       0.00 
freq.    1635.41  E(vib)   ...       0.00 
freq.    1656.37  E(vib)   ...       0.00 
freq.    1661.72  E(vib)   ...       0.00 
freq.    1672.49  E(vib)   ...       0.00 
freq.    1711.18  E(vib)   ...       0.00 
freq.    2334.78  E(vib)   ...       0.00 
freq.    3167.73  E(vib)   ...       0.00 
freq.    3171.46  E(vib)   ...       0.00 
freq.    3171.83  E(vib)   ...       0.00 
freq.    3174.00  E(vib)   ...       0.00 
freq.    3175.83  E(vib)   ...       0.00 
freq.    3178.23  E(vib)   ...       0.00 
freq.    3181.38  E(vib)   ...       0.00 
freq.    3194.36  E(vib)   ...       0.00 
freq.    3198.36  E(vib)   ...       0.00 
freq.    3199.85  E(vib)   ...       0.00 
freq.    3218.05  E(vib)   ...       0.00 
freq.    3221.47  E(vib)   ...       0.00 
freq.    3607.74  E(vib)   ...       0.00 
freq.    3736.83  E(vib)   ...       0.00 

------------
INNER ENERGY
------------

The inner energy is: U= E(el) + E(ZPE) + E(vib) + E(rot) + E(trans)
    E(el)   - is the total energy from the electronic structure calculation
              = E(kin-el) + E(nuc-el) + E(el-el) + E(nuc-nuc)
    E(ZPE)  - the the zero temperature vibrational energy from the frequency calculation
    E(vib)  - the the finite temperature correction to E(ZPE) due to population
              of excited vibrational states
    E(rot)  - is the rotational thermal energy
    E(trans)- is the translational thermal energy

Summary of contributions to the inner energy U:
Electronic energy                ...   -916.94658011 Eh
Zero point energy                ...      0.28871232 Eh     181.17 kcal/mol
Thermal vibrational correction   ...      0.01350493 Eh       8.47 kcal/mol
Thermal rotational correction    ...      0.00141627 Eh       0.89 kcal/mol
Thermal translational correction ...      0.00141627 Eh       0.89 kcal/mol
-----------------------------------------------------------------------
Total thermal energy                   -916.64153032 Eh


Summary of corrections to the electronic energy:
(perhaps to be used in another calculation)
Total thermal correction                  0.01633747 Eh      10.25 kcal/mol
Non-thermal (ZPE) correction              0.28871232 Eh     181.17 kcal/mol
-----------------------------------------------------------------------
Total correction                          0.30504979 Eh     191.42 kcal/mol


--------
ENTHALPY
--------

The enthalpy is H = U + kB*T
                kB is Boltzmann's constant
Total free energy                 ...   -916.64153032 Eh 
Thermal Enthalpy correction       ...      0.00094421 Eh       0.59 kcal/mol
-----------------------------------------------------------------------
Total Enthalpy                    ...   -916.64058611 Eh


Note: Only C1 symmetry has been detected, increase convergence thresholds 
      if your molecule has a higher symmetry. Symmetry factor of 1.0 is   
      used for the rotational entropy correction. 
 

Note: Rotational entropy computed according to Herzberg 
Infrared and Raman Spectra, Chapter V,1, Van Nostrand Reinhold, 1945 
Point Group:  C1, Symmetry Number:   1  
Rotational constants in cm-1:     0.026215     0.003952     0.003434 

Vibrational entropy computed according to the QRRHO of S. Grimme
Chem.Eur.J. 2012 18 9955


-------
ENTROPY
-------

The entropy contributions are T*S = T*(S(el)+S(vib)+S(rot)+S(trans))
     S(el)   - electronic entropy
     S(vib)  - vibrational entropy
     S(rot)  - rotational entropy
     S(trans)- translational entropy
The entropies will be listed as multiplied by the temperature to get
units of energy

Electronic entropy                ...      0.00000000 Eh      0.00 kcal/mol
Vibrational entropy               ...      0.02279415 Eh     14.30 kcal/mol
Rotational entropy                ...      0.01652091 Eh     10.37 kcal/mol
Translational entropy             ...      0.02040028 Eh     12.80 kcal/mol
-----------------------------------------------------------------------
Final entropy term                ...      0.05971534 Eh     37.47 kcal/mol

In case the symmetry of your molecule has not been determined correctly
or in case you have a reason to use a different symmetry number we print 
out the resulting rotational entropy values for sn=1,12 :
 --------------------------------------------------------
|  sn= 1 | S(rot)=       0.01652091 Eh     10.37 kcal/mol|
|  sn= 2 | S(rot)=       0.01586645 Eh      9.96 kcal/mol|
|  sn= 3 | S(rot)=       0.01548362 Eh      9.72 kcal/mol|
|  sn= 4 | S(rot)=       0.01521200 Eh      9.55 kcal/mol|
|  sn= 5 | S(rot)=       0.01500131 Eh      9.41 kcal/mol|
|  sn= 6 | S(rot)=       0.01482916 Eh      9.31 kcal/mol|
|  sn= 7 | S(rot)=       0.01468362 Eh      9.21 kcal/mol|
|  sn= 8 | S(rot)=       0.01455754 Eh      9.13 kcal/mol|
|  sn= 9 | S(rot)=       0.01444633 Eh      9.07 kcal/mol|
|  sn=10 | S(rot)=       0.01434685 Eh      9.00 kcal/mol|
|  sn=11 | S(rot)=       0.01425686 Eh      8.95 kcal/mol|
|  sn=12 | S(rot)=       0.01417471 Eh      8.89 kcal/mol|
 --------------------------------------------------------


-------------------
GIBBS FREE ENERGY
-------------------

The Gibbs free energy is G = H - T*S

Total enthalpy                    ...   -916.64058611 Eh 
Total entropy correction          ...     -0.05971534 Eh    -37.47 kcal/mol
-----------------------------------------------------------------------
Final Gibbs free energy         ...   -916.70030145 Eh

For completeness - the Gibbs free energy minus the electronic energy
G-E(el)                           ...      0.24627865 Eh    154.54 kcal/mol


Timings for individual modules:

Sum of individual times         ...     1824.486 sec (=  30.408 min)
GTO integral calculation        ...       21.406 sec (=   0.357 min)   1.2 %
SCF iterations                  ...      357.870 sec (=   5.964 min)  19.6 %
SCF Gradient evaluation         ...       33.652 sec (=   0.561 min)   1.8 %
Geometry relaxation             ...        1.789 sec (=   0.030 min)   0.1 %
Analytical frequency calculation...     1409.769 sec (=  23.496 min)  77.3 %
                             ****ORCA TERMINATED NORMALLY****
TOTAL RUN TIME: 0 days 0 hours 30 minutes 32 seconds 335 msec
