Start Job  on nano05

                                 *****************
                                 * O   R   C   A *
                                 *****************

                                            #,                                       
                                            ###                                      
                                            ####                                     
                                            #####                                    
                                            ######                                   
                                           ########,                                 
                                     ,,################,,,,,                         
                               ,,#################################,,                 
                          ,,##########################################,,             
                       ,#########################################, ''#####,          
                    ,#############################################,,   '####,        
                  ,##################################################,,,,####,       
                ,###########''''           ''''###############################       
              ,#####''   ,,,,##########,,,,          '''####'''          '####       
            ,##' ,,,,###########################,,,                        '##       
           ' ,,###''''                  '''############,,,                           
         ,,##''                                '''############,,,,        ,,,,,,###''
      ,#''                                            '''#######################'''  
     '                                                          ''''####''''         
             ,#######,   #######,   ,#######,      ##                                
            ,#'     '#,  ##    ##  ,#'     '#,    #''#        ######   ,####,        
            ##       ##  ##   ,#'  ##            #'  '#       #        #'  '#        
            ##       ##  #######   ##           ,######,      #####,   #    #        
            '#,     ,#'  ##    ##  '#,     ,#' ,#      #,         ##   #,  ,#        
             '#######'   ##     ##  '#######'  #'      '#     #####' # '####'        



                  #######################################################
                  #                        -***-                        #
                  #          Department of theory and spectroscopy      #
                  #    Directorship and core code : Frank Neese         #
                  #        Max Planck Institute fuer Kohlenforschung    #
                  #                Kaiser Wilhelm Platz 1               #
                  #                 D-45470 Muelheim/Ruhr               #
                  #                      Germany                        #
                  #                                                     #
                  #                  All rights reserved                #
                  #                        -***-                        #
                  #######################################################


                         Program Version 5.0.4 -  RELEASE  -


 With contributions from (in alphabetic order):
   Daniel Aravena         : Magnetic Suceptibility
   Michael Atanasov       : Ab Initio Ligand Field Theory (pilot matlab implementation)
   Alexander A. Auer      : GIAO ZORA, VPT2 properties, NMR spectrum
   Ute Becker             : Parallelization
   Giovanni Bistoni       : ED, misc. LED, open-shell LED, HFLD
   Martin Brehm           : Molecular dynamics
   Dmytro Bykov           : SCF Hessian
   Vijay G. Chilkuri      : MRCI spin determinant printing, contributions to CSF-ICE
   Dipayan Datta          : RHF DLPNO-CCSD density
   Achintya Kumar Dutta   : EOM-CC, STEOM-CC
   Dmitry Ganyushin       : Spin-Orbit,Spin-Spin,Magnetic field MRCI
   Miquel Garcia          : C-PCM and meta-GGA Hessian, CC/C-PCM, Gaussian charge scheme
   Yang Guo               : DLPNO-NEVPT2, F12-NEVPT2, CIM, IAO-localization
   Andreas Hansen         : Spin unrestricted coupled pair/coupled cluster methods
   Benjamin Helmich-Paris : MC-RPA, TRAH-SCF, COSX integrals
   Lee Huntington         : MR-EOM, pCC
   Robert Izsak           : Overlap fitted RIJCOSX, COSX-SCS-MP3, EOM
   Marcus Kettner         : VPT2
   Christian Kollmar      : KDIIS, OOCD, Brueckner-CCSD(T), CCSD density, CASPT2, CASPT2-K
   Simone Kossmann        : Meta GGA functionals, TD-DFT gradient, OOMP2, MP2 Hessian
   Martin Krupicka        : Initial AUTO-CI
   Lucas Lang             : DCDCAS
   Marvin Lechner         : AUTO-CI (C++ implementation), FIC-MRCC
   Dagmar Lenk            : GEPOL surface, SMD
   Dimitrios Liakos       : Extrapolation schemes; Compound Job, initial MDCI parallelization
   Dimitrios Manganas     : Further ROCIS development; embedding schemes
   Dimitrios Pantazis     : SARC Basis sets
   Anastasios Papadopoulos: AUTO-CI, single reference methods and gradients
   Taras Petrenko         : DFT Hessian,TD-DFT gradient, ASA, ECA, R-Raman, ABS, FL, XAS/XES, NRVS
   Peter Pinski           : DLPNO-MP2, DLPNO-MP2 Gradient
   Christoph Reimann      : Effective Core Potentials
   Marius Retegan         : Local ZFS, SOC
   Christoph Riplinger    : Optimizer, TS searches, QM/MM, DLPNO-CCSD(T), (RO)-DLPNO pert. Triples
   Tobias Risthaus        : Range-separated hybrids, TD-DFT gradient, RPA, STAB
   Michael Roemelt        : Original ROCIS implementation
   Masaaki Saitow         : Open-shell DLPNO-CCSD energy and density
   Barbara Sandhoefer     : DKH picture change effects
   Avijit Sen             : IP-ROCIS
   Kantharuban Sivalingam : CASSCF convergence, NEVPT2, FIC-MRCI
   Bernardo de Souza      : ESD, SOC TD-DFT
   Georgi Stoychev        : AutoAux, RI-MP2 NMR, DLPNO-MP2 response
   Willem Van den Heuvel  : Paramagnetic NMR
   Boris Wezisla          : Elementary symmetry handling
   Frank Wennmohs         : Technical directorship


 We gratefully acknowledge several colleagues who have allowed us to
 interface, adapt or use parts of their codes:
   Stefan Grimme, W. Hujo, H. Kruse, P. Pracht,  : VdW corrections, initial TS optimization,
                  C. Bannwarth, S. Ehlert          DFT functionals, gCP, sTDA/sTD-DF
   Ed Valeev, F. Pavosevic, A. Kumar             : LibInt (2-el integral package), F12 methods
   Garnet Chan, S. Sharma, J. Yang, R. Olivares  : DMRG
   Ulf Ekstrom                                   : XCFun DFT Library
   Mihaly Kallay                                 : mrcc  (arbitrary order and MRCC methods)
   Jiri Pittner, Ondrej Demel                    : Mk-CCSD
   Frank Weinhold                                : gennbo (NPA and NBO analysis)
   Christopher J. Cramer and Donald G. Truhlar   : smd solvation model
   Lars Goerigk                                  : TD-DFT with DH, B97 family of functionals
   V. Asgeirsson, H. Jonsson                     : NEB implementation
   FAccTs GmbH                                   : IRC, NEB, NEB-TS, DLPNO-Multilevel, CI-OPT
                                                   MM, QMMM, 2- and 3-layer-ONIOM, Crystal-QMMM,
                                                   LR-CPCM, SF, NACMEs, symmetry and pop. for TD-DFT,
                                                   nearIR, NL-DFT gradient (VV10), updates on ESD,
                                                   ML-optimized integration grids
   S Lehtola, MJT Oliveira, MAL Marques          : LibXC Library
   Liviu Ungur et al                             : ANISO software


 Your calculation uses the libint2 library for the computation of 2-el integrals
 For citations please refer to: http://libint.valeyev.net

 Your ORCA version has been built with support for libXC version: 5.1.0
 For citations please refer to: https://tddft.org/programs/libxc/

 This ORCA versions uses:
   CBLAS   interface :  Fast vector & matrix operations
   LAPACKE interface :  Fast linear algebra routines
   SCALAPACK package :  Parallel linear algebra routines
   Shared memory     :  Shared parallel matrices
   BLAS/LAPACK       :  OpenBLAS 0.3.15  USE64BITINT DYNAMIC_ARCH NO_AFFINITY Zen SINGLE_THREADED
        Core in use  :  Zen
   Copyright (c) 2011-2014, The OpenBLAS Project


================================================================================

----- Orbital basis set information -----
Your calculation utilizes the basis: def2-SVP
   F. Weigend and R. Ahlrichs, Phys. Chem. Chem. Phys. 7, 3297 (2005).

----- AuxJ basis set information -----
Your calculation utilizes the auxiliary basis: def2/J
   F. Weigend, Phys. Chem. Chem. Phys. 8, 1057 (2006).

================================================================================
                                        WARNINGS
                       Please study these warnings very carefully!
================================================================================


WARNING: Geometry Optimization
  ===> : Switching off AutoStart
         For restart on a previous wavefunction, please use MOREAD

INFO   : the flag for use of the SHARK integral package has been found!

================================================================================
                                       INPUT FILE
================================================================================
NAME = NC_NH2_4.inp
|  1> ! B3LYP def2-SVP Opt PAL8 FREQ defgrid3 slowconv VeryTightSCF
|  2> *xyz 0 1
|  3>  C        -7.226624        3.031802       -0.227926
|  4>  C        -5.969005        3.674652       -0.219587
|  5>  C        -4.782720        2.967811       -0.143270
|  6>  C        -4.785450        1.559585       -0.064240
|  7>  C        -3.572223        0.808556        0.045221
|  8>  C        -3.584315       -0.555325        0.128016
|  9>  C        -4.807675       -1.306727        0.097588
| 10>  C        -4.829297       -2.737361        0.172775
| 11>  C        -6.088182       -3.379748        0.154384
| 12>  C        -7.277987       -2.673037        0.079559
| 13>  C        -7.285213       -1.267578       -0.002232
| 14>  C        -8.497101       -0.516119       -0.110152
| 15>  C        -8.491831        0.847549       -0.192998
| 16>  C        -7.266982        1.600765       -0.161708
| 17>  C        -6.033592        0.862682       -0.074877
| 18>  C        -6.038546       -0.571415        0.004822
| 19>  C        -8.456503        3.817781       -0.276443
| 20>  C        -3.595249       -3.516253        0.253754
| 21>  C        -8.554861        5.151722       -0.634751
| 22>  C        -3.499204       -4.784233        0.731118
| 23>  C        -9.889059        5.750401       -0.607368
| 24>  N        -2.374052       -5.568834        0.718685
| 25>  N       -10.847751        6.372711       -0.595820
| 26>  H        -5.925703        4.766417       -0.237644
| 27>  H        -3.828197        3.500532       -0.123555
| 28>  H        -2.623941        1.352553        0.070059
| 29>  H        -2.635713       -1.082709        0.230158
| 30>  H        -6.127721       -4.471138        0.164074
| 31>  H        -8.230010       -3.211237        0.058680
| 32>  H        -9.446306       -1.059476       -0.132245
| 33>  H        -9.446672        1.362836       -0.295644
| 34>  H        -9.209072        3.118329        0.018480
| 35>  H        -2.673063       -3.046317       -0.100178
| 36>  H        -8.069123        5.651014       -0.982541
| 37>  H        -4.377370       -5.284480        1.152805
| 38>  H        -2.312802       -6.331901        1.380875
| 39>  H        -1.486740       -5.138933        0.481315
| 40> *
| 41> 
| 42>                          ****END OF INPUT****
================================================================================

                       *****************************
                       * Geometry Optimization Run *
                       *****************************

Geometry optimization settings:
Update method            Update   .... BFGS
Choice of coordinates    CoordSys .... Z-matrix Internals
Initial Hessian          InHess   .... Almoef's Model

Convergence Tolerances:
Energy Change            TolE     ....  5.0000e-06 Eh
Max. Gradient            TolMAXG  ....  3.0000e-04 Eh/bohr
RMS Gradient             TolRMSG  ....  1.0000e-04 Eh/bohr
Max. Displacement        TolMAXD  ....  4.0000e-03 bohr
RMS Displacement         TolRMSD  ....  2.0000e-03 bohr
Strict Convergence                ....  False
------------------------------------------------------------------------------
                        ORCA OPTIMIZATION COORDINATE SETUP
------------------------------------------------------------------------------

The optimization will be done in new redundant internal coordinates
Making redundant internal coordinates   ...  (new redundants) done
Evaluating the initial hessian          ...  (Almloef) done
Evaluating the coordinates              ...  done
Calculating the B-matrix                .... done
Calculating the G-matrix                .... done
Diagonalizing the G-matrix              .... done
Small eigenvalue found = 5.261e-03
Small eigenvalue found = 1.074e-02
Small eigenvalue found = 1.397e-02
The first mode is                       ....   97
The number of degrees of freedom        ....  105

    -----------------------------------------------------------------
                    Redundant Internal Coordinates


    -----------------------------------------------------------------
         Definition                    Initial Value    Approx d2E/dq
    -----------------------------------------------------------------
      1. B(C   1,C   0)                  1.4124         0.575398   
      2. B(C   2,C   1)                  1.3830         0.641045   
      3. B(C   3,C   2)                  1.4104         0.579590   
      4. B(C   4,C   3)                  1.4311         0.537307   
      5. B(C   5,C   4)                  1.3664         0.681269   
      6. B(C   6,C   5)                  1.4360         0.527623   
      7. B(C   7,C   6)                  1.4328         0.533948   
      8. B(C   8,C   7)                  1.4134         0.573263   
      9. B(C   9,C   8)                  1.3859         0.634315   
     10. B(C  10,C   9)                  1.4079         0.585129   
     11. B(C  11,C  10)                  1.4300         0.539336   
     12. B(C  12,C  11)                  1.3662         0.681902   
     13. B(C  13,C  12)                  1.4383         0.523306   
     14. B(C  13,C   0)                  1.4331         0.533233   
     15. B(C  14,C   3)                  1.4296         0.540283   
     16. B(C  14,C  13)                  1.4400         0.519985   
     17. B(C  15,C  14)                  1.4363         0.527036   
     18. B(C  15,C  10)                  1.4279         0.543609   
     19. B(C  15,C   6)                  1.4368         0.526146   
     20. B(C  16,C   0)                  1.4604         0.482444   
     21. B(C  17,C   7)                  1.4615         0.480394   
     22. B(C  18,C  16)                  1.3847         0.637027   
     23. B(C  19,C  17)                  1.3583         0.702062   
     24. B(C  20,C  18)                  1.4626         0.478500   
     25. B(N  21,C  19)                  1.3718         0.598383   
     26. B(N  22,C  20)                  1.1430         1.386491   
     27. B(H  23,C   1)                  1.0928         0.356451   
     28. B(H  24,C   2)                  1.0933         0.355767   
     29. B(H  25,C   4)                  1.0935         0.355472   
     30. B(H  26,C   5)                  1.0901         0.359910   
     31. B(H  27,C   8)                  1.0921         0.357268   
     32. B(H  28,C   9)                  1.0938         0.355081   
     33. B(H  29,C  11)                  1.0939         0.354919   
     34. B(H  30,C  12)                  1.0899         0.360295   
     35. B(H  31,C  16)                  1.0689         0.389106   
     36. B(H  32,C  17)                  1.0939         0.355027   
     37. B(H  33,C  18)                  0.7786         1.130495   
     38. B(H  34,C  19)                  1.0951         0.353417   
     39. B(H  35,N  21)                  1.0122         0.429249   
     40. B(H  36,N  21)                  1.0141         0.426175   
     41. A(C   1,C   0,C  13)          118.6381         0.416902   
     42. A(C   1,C   0,C  16)          120.3380         0.409557   
     43. A(C  13,C   0,C  16)          121.0129         0.404083   
     44. A(C   2,C   1,H  23)          118.5248         0.354298   
     45. A(C   0,C   1,C   2)          122.1037         0.430857   
     46. A(C   0,C   1,H  23)          119.3344         0.347889   
     47. A(C   1,C   2,C   3)          120.7782         0.431419   
     48. A(C   3,C   2,H  24)          119.1551         0.348202   
     49. A(C   1,C   2,H  24)          120.0557         0.354183   
     50. A(C   4,C   3,C  14)          119.0073         0.412819   
     51. A(C   2,C   3,C  14)          119.2092         0.418419   
     52. A(C   2,C   3,C   4)          121.7776         0.418008   
     53. A(C   3,C   4,H  25)          118.4141         0.343748   
     54. A(C   3,C   4,C   5)          121.3961         0.430267   
     55. A(C   5,C   4,H  25)          120.1879         0.357810   
     56. A(C   6,C   5,H  26)          119.3505         0.343415   
     57. A(C   4,C   5,C   6)          121.9060         0.428865   
     58. A(C   4,C   5,H  26)          118.7405         0.358566   
     59. A(C   5,C   6,C   7)          122.2909         0.410629   
     60. A(C   7,C   6,C  15)          120.0976         0.410425   
     61. A(C   5,C   6,C  15)          117.6068         0.409559   
     62. A(C   6,C   7,C  17)          121.4863         0.403875   
     63. A(C   6,C   7,C   8)          117.8117         0.416726   
     64. A(C   8,C   7,C  17)          120.6996         0.408979   
     65. A(C   9,C   8,H  27)          118.6187         0.353802   
     66. A(C   7,C   8,H  27)          119.0977         0.347806   
     67. A(C   7,C   8,C   9)          122.2482         0.429755   
     68. A(C  10,C   9,H  28)          119.0533         0.348648   
     69. A(C   8,C   9,H  28)          119.8246         0.353435   
     70. A(C   8,C   9,C  10)          121.1051         0.431338   
     71. A(C  11,C  10,C  15)          118.9517         0.413546   
     72. A(C   9,C  10,C  15)          118.8127         0.419588   
     73. A(C   9,C  10,C  11)          122.2301         0.418998   
     74. A(C  10,C  11,H  29)          118.4144         0.343876   
     75. A(C  12,C  11,H  29)          119.8611         0.357772   
     76. A(C  10,C  11,C  12)          121.7233         0.430630   
     77. A(C  13,C  12,H  30)          120.0373         0.343004   
     78. A(C  11,C  12,C  13)          121.6481         0.428305   
     79. A(C  11,C  12,H  30)          118.3113         0.358688   
     80. A(C   0,C  13,C  12)          123.0870         0.409934   
     81. A(C  12,C  13,C  14)          117.5371         0.408112   
     82. A(C   0,C  13,C  14)          119.3720         0.409472   
     83. A(C  13,C  14,C  15)          120.8079         0.408625   
     84. A(C   3,C  14,C  15)          119.2971         0.411408   
     85. A(C   3,C  14,C  13)          119.8948         0.410426   
     86. A(C  10,C  15,C  14)          119.3097         0.411856   
     87. A(C   6,C  15,C  14)          120.7714         0.409479   
     88. A(C   6,C  15,C  10)          119.9182         0.411732   
     89. A(C  18,C  16,H  31)          130.6734         0.359229   
     90. A(C   0,C  16,H  31)          103.3903         0.342753   
     91. A(C   0,C  16,C  18)          125.9358         0.417025   
     92. A(C  19,C  17,H  32)          117.0751         0.359569   
     93. A(C   7,C  17,H  32)          117.7071         0.337303   
     94. A(C   7,C  17,C  19)          125.2174         0.423999   
     95. A(C  20,C  18,H  33)          108.3590         0.411436   
     96. A(C  16,C  18,H  33)          133.5539         0.433011   
     97. A(C  16,C  18,C  20)          117.0173         0.416416   
     98. A(N  21,C  19,H  34)          113.5754         0.347545   
     99. A(C  17,C  19,H  34)          120.3360         0.359291   
    100. A(C  17,C  19,N  21)          126.0693         0.438176   
    101. A(C  18,C  20,N  22)          171.1652         0.476221   
    102. A(C  19,N  21,H  36)          118.5098         0.355592   
    103. A(C  19,N  21,H  35)          118.3528         0.356026   
    104. A(H  35,N  21,H  36)          114.8192         0.302133   
    105. D(H  23,C   1,C   0,C  16)      0.7317         0.022730   
    106. D(H  23,C   1,C   0,C  13)   -178.0734         0.022730   
    107. D(C   2,C   1,C   0,C  16)    178.4855         0.022730   
    108. D(C   2,C   1,C   0,C  13)     -0.3197         0.022730   
    109. D(H  24,C   2,C   1,C   0)   -179.0499         0.028558   
    110. D(C   3,C   2,C   1,H  23)    177.5014         0.028558   
    111. D(C   3,C   2,C   1,C   0)     -0.2698         0.028558   
    112. D(H  24,C   2,C   1,H  23)     -1.2786         0.028558   
    113. D(C  14,C   3,C   2,H  24)    179.3075         0.023078   
    114. D(C  14,C   3,C   2,C   1)      0.5166         0.023078   
    115. D(C   4,C   3,C   2,H  24)      0.1931         0.023078   
    116. D(C   4,C   3,C   2,C   1)   -178.5978         0.023078   
    117. D(H  25,C   4,C   3,C   2)      0.1708         0.019721   
    118. D(C   5,C   4,C   3,C   2)    179.6681         0.019721   
    119. D(C   5,C   4,C   3,C  14)      0.5519         0.019721   
    120. D(H  25,C   4,C   3,C  14)   -178.9454         0.019721   
    121. D(H  26,C   5,C   4,H  25)      0.6965         0.032544   
    122. D(C   6,C   5,C   4,C   3)      0.5781         0.032544   
    123. D(C   6,C   5,C   4,H  25)   -179.9334         0.032544   
    124. D(H  26,C   5,C   4,C   3)   -178.7920         0.032544   
    125. D(C  15,C   6,C   5,H  26)    178.0569         0.018998   
    126. D(C   7,C   6,C   5,H  26)     -1.1568         0.018998   
    127. D(C   7,C   6,C   5,C   4)    179.4768         0.018998   
    128. D(C  15,C   6,C   5,C   4)     -1.3095         0.018998   
    129. D(C  17,C   7,C   6,C  15)    179.3467         0.019468   
    130. D(C  17,C   7,C   6,C   5)     -1.4587         0.019468   
    131. D(C   8,C   7,C   6,C  15)     -0.1044         0.019468   
    132. D(C   8,C   7,C   6,C   5)    179.0902         0.019468   
    133. D(H  27,C   8,C   7,C   6)    177.2011         0.022554   
    134. D(C   9,C   8,C   7,C  17)    179.9379         0.022554   
    135. D(C   9,C   8,C   7,C   6)     -0.6065         0.022554   
    136. D(H  27,C   8,C   7,C  17)     -2.2545         0.022554   
    137. D(H  28,C   9,C   8,H  27)      1.6240         0.027922   
    138. D(H  28,C   9,C   8,C   7)    179.4417         0.027922   
    139. D(C  10,C   9,C   8,H  27)   -176.8650         0.027922   
    140. D(C  10,C   9,C   8,C   7)      0.9527         0.027922   
    141. D(C  15,C  10,C   9,H  28)   -179.0511         0.023542   
    142. D(C  15,C  10,C   9,C   8)     -0.5507         0.023542   
    143. D(C  11,C  10,C   9,H  28)      0.0876         0.023542   
    144. D(C  11,C  10,C   9,C   8)    178.5880         0.023542   
    145. D(H  29,C  11,C  10,C  15)    178.9518         0.019874   
    146. D(H  29,C  11,C  10,C   9)     -0.1858         0.019874   
    147. D(C  12,C  11,C  10,C  15)     -0.6590         0.019874   
    148. D(C  12,C  11,C  10,C   9)   -179.7965         0.019874   
    149. D(H  30,C  12,C  11,H  29)     -0.9326         0.032609   
    150. D(H  30,C  12,C  11,C  10)    178.6727         0.032609   
    151. D(C  13,C  12,C  11,H  29)    179.7222         0.032609   
    152. D(C  13,C  12,C  11,C  10)     -0.6725         0.032609   
    153. D(C  14,C  13,C  12,H  30)   -177.7264         0.018681   
    154. D(C   0,C  13,C  12,H  30)      1.5465         0.018681   
    155. D(C   0,C  13,C  12,C  11)   -179.1194         0.018681   
    156. D(C  14,C  13,C   0,C  16)   -178.1522         0.019414   
    157. D(C  14,C  13,C   0,C   1)      0.6446         0.019414   
    158. D(C  14,C  13,C  12,C  11)      1.6077         0.018681   
    159. D(C  12,C  13,C   0,C  16)      2.5877         0.019414   
    160. D(C  12,C  13,C   0,C   1)   -178.6156         0.019414   
    161. D(C   3,C  14,C  13,C  12)    178.8989         0.018440   
    162. D(C   3,C  14,C  13,C   0)     -0.4020         0.018440   
    163. D(C  15,C  14,C   3,C   4)     -0.8926         0.019946   
    164. D(C  15,C  14,C   3,C   2)    179.9682         0.019946   
    165. D(C  13,C  14,C   3,C   4)    178.9625         0.019946   
    166. D(C  15,C  14,C  13,C   0)    179.4508         0.018440   
    167. D(C  13,C  14,C   3,C   2)     -0.1767         0.019946   
    168. D(C  15,C  14,C  13,C  12)     -1.2483         0.018440   
    169. D(C  10,C  15,C  14,C  13)     -0.0174         0.018954   
    170. D(C   6,C  15,C  14,C  13)   -179.7137         0.018954   
    171. D(C   6,C  15,C  14,C   3)      0.1400         0.018954   
    172. D(C  14,C  15,C  10,C  11)      0.9828         0.020200   
    173. D(C  14,C  15,C  10,C   9)   -179.8499         0.020200   
    174. D(C   6,C  15,C  10,C  11)   -179.3183         0.020200   
    175. D(C   6,C  15,C  10,C   9)     -0.1509         0.020200   
    176. D(C  14,C  15,C   6,C   7)   -179.8332         0.018889   
    177. D(C  14,C  15,C   6,C   5)      0.9351         0.018889   
    178. D(C  10,C  15,C  14,C   3)    179.8363         0.018954   
    179. D(C  10,C  15,C   6,C   7)      0.4723         0.018889   
    180. D(C  10,C  15,C   6,C   5)   -178.7594         0.018889   
    181. D(H  31,C  16,C   0,C  13)     15.0131         0.015847   
    182. D(H  31,C  16,C   0,C   1)   -163.7633         0.015847   
    183. D(C  18,C  16,C   0,C  13)   -164.7486         0.015847   
    184. D(C  18,C  16,C   0,C   1)     16.4750         0.015847   
    185. D(H  32,C  17,C   7,C   8)    157.7427         0.015712   
    186. D(H  32,C  17,C   7,C   6)    -21.6926         0.015712   
    187. D(C  19,C  17,C   7,C   8)    -22.0397         0.015712   
    188. D(C  19,C  17,C   7,C   6)    158.5250         0.015712   
    189. D(H  33,C  18,C  16,H  31)   -165.8743         0.028177   
    190. D(H  33,C  18,C  16,C   0)     13.8200         0.028177   
    191. D(C  20,C  18,C  16,H  31)      0.6919         0.028177   
    192. D(C  20,C  18,C  16,C   0)   -179.6138         0.028177   
    193. D(H  34,C  19,C  17,H  32)    176.4331         0.034732   
    194. D(H  34,C  19,C  17,C   7)     -3.7833         0.034732   
    195. D(N  21,C  19,C  17,H  32)     -5.2660         0.034732   
    196. D(N  21,C  19,C  17,C   7)    174.5176         0.034732   
    197. D(N  22,C  20,C  18,H  33)    -24.5446         0.014198   
    198. D(N  22,C  20,C  18,C  16)    165.6737         0.014198   
    199. D(H  36,N  21,C  19,H  34)   -170.5613         0.028841   
    200. D(H  36,N  21,C  19,C  17)     11.0386         0.028841   
    201. D(H  35,N  21,C  19,H  34)    -23.8502         0.028841   
    202. D(H  35,N  21,C  19,C  17)    157.7497         0.028841   
    -----------------------------------------------------------------

Number of atoms                         .... 37
Number of degrees of freedom            .... 202

         *************************************************************
         *                GEOMETRY OPTIMIZATION CYCLE   1            *
         *************************************************************
---------------------------------
CARTESIAN COORDINATES (ANGSTROEM)
---------------------------------
  C     -7.226624    3.031802   -0.227926
  C     -5.969005    3.674652   -0.219587
  C     -4.782720    2.967811   -0.143270
  C     -4.785450    1.559585   -0.064240
  C     -3.572223    0.808556    0.045221
  C     -3.584315   -0.555325    0.128016
  C     -4.807675   -1.306727    0.097588
  C     -4.829297   -2.737361    0.172775
  C     -6.088182   -3.379748    0.154384
  C     -7.277987   -2.673037    0.079559
  C     -7.285213   -1.267578   -0.002232
  C     -8.497101   -0.516119   -0.110152
  C     -8.491831    0.847549   -0.192998
  C     -7.266982    1.600765   -0.161708
  C     -6.033592    0.862682   -0.074877
  C     -6.038546   -0.571415    0.004822
  C     -8.456503    3.817781   -0.276443
  C     -3.595249   -3.516253    0.253754
  C     -8.554861    5.151722   -0.634751
  C     -3.499204   -4.784233    0.731118
  C     -9.889059    5.750401   -0.607368
  N     -2.374052   -5.568834    0.718685
  N    -10.847751    6.372711   -0.595820
  H     -5.925703    4.766417   -0.237644
  H     -3.828197    3.500532   -0.123555
  H     -2.623941    1.352553    0.070059
  H     -2.635713   -1.082709    0.230158
  H     -6.127721   -4.471138    0.164074
  H     -8.230010   -3.211237    0.058680
  H     -9.446306   -1.059476   -0.132245
  H     -9.446672    1.362836   -0.295644
  H     -9.209072    3.118329    0.018480
  H     -2.673063   -3.046317   -0.100178
  H     -8.069123    5.651014   -0.982541
  H     -4.377370   -5.284480    1.152805
  H     -2.312802   -6.331901    1.380875
  H     -1.486740   -5.138933    0.481315

----------------------------
CARTESIAN COORDINATES (A.U.)
----------------------------
  NO LB      ZA    FRAG     MASS         X           Y           Z
   0 C     6.0000    0    12.011  -13.656340    5.729275   -0.430718
   1 C     6.0000    0    12.011  -11.279785    6.944086   -0.414959
   2 C     6.0000    0    12.011   -9.038031    5.608350   -0.270741
   3 C     6.0000    0    12.011   -9.043190    2.947189   -0.121396
   4 C     6.0000    0    12.011   -6.750523    1.527949    0.085455
   5 C     6.0000    0    12.011   -6.773374   -1.049412    0.241915
   6 C     6.0000    0    12.011   -9.085189   -2.469356    0.184415
   7 C     6.0000    0    12.011   -9.126049   -5.172863    0.326497
   8 C     6.0000    0    12.011  -11.504997   -6.386798    0.291743
   9 C     6.0000    0    12.011  -13.753402   -5.051308    0.150345
  10 C     6.0000    0    12.011  -13.767057   -2.395375   -0.004218
  11 C     6.0000    0    12.011  -16.057194   -0.975324   -0.208157
  12 C     6.0000    0    12.011  -16.047235    1.601635   -0.364713
  13 C     6.0000    0    12.011  -13.732606    3.025007   -0.305584
  14 C     6.0000    0    12.011  -11.401836    1.630233   -0.141497
  15 C     6.0000    0    12.011  -11.411198   -1.079818    0.009112
  16 C     6.0000    0    12.011  -15.980475    7.214561   -0.522402
  17 C     6.0000    0    12.011   -6.794036   -6.644755    0.479526
  18 C     6.0000    0    12.011  -16.166344    9.735344   -1.199506
  19 C     6.0000    0    12.011   -6.612537   -9.040890    1.381613
  20 C     6.0000    0    12.011  -18.687613   10.866683   -1.147759
  21 N     7.0000    0    14.007   -4.486308  -10.523571    1.358118
  22 N     7.0000    0    14.007  -20.499279   12.042679   -1.125937
  23 H     1.0000    0     1.008  -11.197956    9.007223   -0.449082
  24 H     1.0000    0     1.008   -7.234244    6.615047   -0.233485
  25 H     1.0000    0     1.008   -4.958530    2.555955    0.132392
  26 H     1.0000    0     1.008   -4.980776   -2.046023    0.434936
  27 H     1.0000    0     1.008  -11.579715   -8.449226    0.310055
  28 H     1.0000    0     1.008  -15.552465   -6.068358    0.110889
  29 H     1.0000    0     1.008  -17.850931   -2.002119   -0.249907
  30 H     1.0000    0     1.008  -17.851623    2.575387   -0.558686
  31 H     1.0000    0     1.008  -17.402624    5.892788    0.034922
  32 H     1.0000    0     1.008   -5.051357   -5.756705   -0.189309
  33 H     1.0000    0     1.008  -15.248433   10.678869   -1.856733
  34 H     1.0000    0     1.008   -8.272030   -9.986220    2.178486
  35 H     1.0000    0     1.008   -4.370562  -11.965559    2.609476
  36 H     1.0000    0     1.008   -2.809531   -9.711176    0.909554

--------------------------------
INTERNAL COORDINATES (ANGSTROEM)
--------------------------------
 C      0   0   0     0.000000000000     0.00000000     0.00000000
 C      1   0   0     1.412420337783     0.00000000     0.00000000
 C      2   1   0     1.383011418968   122.10372981     0.00000000
 C      3   2   1     1.410444490533   120.77820923   359.73015065
 C      4   3   2     1.431064646650   121.77762330   181.40217559
 C      5   4   3     1.366445246122   121.39612755   179.66811462
 C      6   5   4     1.436015500748   121.90603549     0.57810232
 C      7   6   5     1.432771523241   122.29092550   179.47682429
 C      8   7   6     1.413432251604   117.81170876   179.09024766
 C      9   8   7     1.385884250640   122.24824151   359.39350962
 C     10   9   8     1.407855455449   121.10514230     0.95270595
 C     11  10   9     1.430038418933   122.23012931   178.58803372
 C     12  11  10     1.366192390127   121.72332890   180.20347378
 C      1   2   3     1.433136590509   118.63808316   359.68034176
 C      4   3   2     1.429561257639   119.20924812     0.51661097
 C     11  10   9     1.427890503636   118.81273058   359.44933536
 C      1   2   3     1.460383251880   120.33799196   178.48551449
 C      8   7   6     1.461541929747   121.48633982   358.54134964
 C     17   1   2     1.384722900262   125.93584504    16.47496754
 C     18   8   7     1.358261503143   125.21737704   158.52495862
 C     19  17   1     1.462617748058   117.01726690   180.38621433
 N     20  18   8     1.371758117087   126.06933824   174.51764793
 N     21  19  17     1.143019441334   171.16520471   165.67366699
 H      2   1   3     1.092772590102   119.33442396   182.24622594
 H      3   2   1     1.093295249507   120.05567016   180.95010565
 H      5   4   3     1.093521108062   118.41409249     0.17077168
 H      6   5   4     1.090143397001   118.74053610   181.20799349
 H      9   8   7     1.092148964529   119.09770996   177.20109992
 H     10   9   8     1.093820353244   119.82461797   179.44168617
 H     12  11  10     1.093944725351   118.41438616   359.81423661
 H     13  12  11     1.089852388613   118.31134109   178.67265809
 H     17   1   2     1.068911958954   103.39026833   196.23665284
 H     18   8   7     1.093862296323   117.70714266   338.30736194
 H     19  17   1     0.778583194018   133.55391686    13.81998995
 H     20  18   8     1.095099315375   120.33604534   356.21671342
 H     22  20  18     1.012184965848   118.35283373   157.74971282
 H     22  20  18     1.014141002053   118.50979493    11.03861951

---------------------------
INTERNAL COORDINATES (A.U.)
---------------------------
 C      0   0   0     0.000000000000     0.00000000     0.00000000
 C      1   0   0     2.669087624390     0.00000000     0.00000000
 C      2   1   0     2.613512821935   122.10372981     0.00000000
 C      3   2   1     2.665353814206   120.77820923   359.73015065
 C      4   3   2     2.704320262105   121.77762330   181.40217559
 C      5   4   3     2.582207292170   121.39612755   179.66811462
 C      6   5   4     2.713676020479   121.90603549     0.57810232
 C      7   6   5     2.707545791406   122.29092550   179.47682429
 C      8   7   6     2.670999864384   117.81170876   179.09024766
 C      9   8   7     2.618941687024   122.24824151   359.39350962
 C     10   9   8     2.660461246946   121.10514230     0.95270595
 C     11  10   9     2.702380972770   122.23012931   178.58803372
 C     12  11  10     2.581729463587   121.72332890   180.20347378
 C      1   2   3     2.708235668564   118.63808316   359.68034176
 C      4   3   2     2.701479268601   119.20924812     0.51661097
 C     11  10   9     2.698322001099   118.81273058   359.44933536
 C      1   2   3     2.759724396618   120.33799196   178.48551449
 C      8   7   6     2.761913980465   121.48633982   358.54134964
 C     17   1   2     2.616747052864   125.93584504    16.47496754
 C     18   8   7     2.566742259189   125.21737704   158.52495862
 C     19  17   1     2.763946982442   117.01726690   180.38621433
 N     20  18   8     2.592247163278   126.06933824   174.51764793
 N     21  19  17     2.159993709869   171.16520471   165.67366699
 H      2   1   3     2.065040921948   119.33442396   182.24622594
 H      3   2   1     2.066028605086   120.05567016   180.95010565
 H      5   4   3     2.066455415899   118.41409249     0.17077168
 H      6   5   4     2.060072467034   118.74053610   181.20799349
 H      9   8   7     2.063862440405   119.09770996   177.20109992
 H     10   9   8     2.067020907339   119.82461797   179.44168617
 H     12  11  10     2.067255936561   118.41438616   359.81423661
 H     13  12  11     2.059522540879   118.31134109   178.67265809
 H     17   1   2     2.019950863696   103.39026833   196.23665284
 H     18   8   7     2.067100168272   117.70714266   338.30736194
 H     19  17   1     1.471309009169   133.55391686    13.81998995
 H     20  18   8     2.069437795503   120.33604534   356.21671342
 H     22  20  18     1.912752382325   118.35283373   157.74971282
 H     22  20  18     1.916448755061   118.50979493    11.03861951

---------------------
BASIS SET INFORMATION
---------------------
There are 3 groups of distinct atoms

 Group   1 Type C   : 7s4p1d contracted to 3s2p1d pattern {511/31/1}
 Group   2 Type N   : 7s4p1d contracted to 3s2p1d pattern {511/31/1}
 Group   3 Type H   : 4s1p contracted to 2s1p pattern {31/1}

Atom   0C    basis set group =>   1
Atom   1C    basis set group =>   1
Atom   2C    basis set group =>   1
Atom   3C    basis set group =>   1
Atom   4C    basis set group =>   1
Atom   5C    basis set group =>   1
Atom   6C    basis set group =>   1
Atom   7C    basis set group =>   1
Atom   8C    basis set group =>   1
Atom   9C    basis set group =>   1
Atom  10C    basis set group =>   1
Atom  11C    basis set group =>   1
Atom  12C    basis set group =>   1
Atom  13C    basis set group =>   1
Atom  14C    basis set group =>   1
Atom  15C    basis set group =>   1
Atom  16C    basis set group =>   1
Atom  17C    basis set group =>   1
Atom  18C    basis set group =>   1
Atom  19C    basis set group =>   1
Atom  20C    basis set group =>   1
Atom  21N    basis set group =>   2
Atom  22N    basis set group =>   2
Atom  23H    basis set group =>   3
Atom  24H    basis set group =>   3
Atom  25H    basis set group =>   3
Atom  26H    basis set group =>   3
Atom  27H    basis set group =>   3
Atom  28H    basis set group =>   3
Atom  29H    basis set group =>   3
Atom  30H    basis set group =>   3
Atom  31H    basis set group =>   3
Atom  32H    basis set group =>   3
Atom  33H    basis set group =>   3
Atom  34H    basis set group =>   3
Atom  35H    basis set group =>   3
Atom  36H    basis set group =>   3
---------------------------------
AUXILIARY/J BASIS SET INFORMATION
---------------------------------
There are 3 groups of distinct atoms

 Group   1 Type C   : 12s5p4d2f1g contracted to 6s4p3d1f1g pattern {711111/2111/211/2/1}
 Group   2 Type N   : 12s5p4d2f1g contracted to 6s4p3d1f1g pattern {711111/2111/211/2/1}
 Group   3 Type H   : 5s2p1d contracted to 3s1p1d pattern {311/2/1}

Atom   0C    basis set group =>   1
Atom   1C    basis set group =>   1
Atom   2C    basis set group =>   1
Atom   3C    basis set group =>   1
Atom   4C    basis set group =>   1
Atom   5C    basis set group =>   1
Atom   6C    basis set group =>   1
Atom   7C    basis set group =>   1
Atom   8C    basis set group =>   1
Atom   9C    basis set group =>   1
Atom  10C    basis set group =>   1
Atom  11C    basis set group =>   1
Atom  12C    basis set group =>   1
Atom  13C    basis set group =>   1
Atom  14C    basis set group =>   1
Atom  15C    basis set group =>   1
Atom  16C    basis set group =>   1
Atom  17C    basis set group =>   1
Atom  18C    basis set group =>   1
Atom  19C    basis set group =>   1
Atom  20C    basis set group =>   1
Atom  21N    basis set group =>   2
Atom  22N    basis set group =>   2
Atom  23H    basis set group =>   3
Atom  24H    basis set group =>   3
Atom  25H    basis set group =>   3
Atom  26H    basis set group =>   3
Atom  27H    basis set group =>   3
Atom  28H    basis set group =>   3
Atom  29H    basis set group =>   3
Atom  30H    basis set group =>   3
Atom  31H    basis set group =>   3
Atom  32H    basis set group =>   3
Atom  33H    basis set group =>   3
Atom  34H    basis set group =>   3
Atom  35H    basis set group =>   3
Atom  36H    basis set group =>   3


           ************************************************************
           *        Program running with 8 parallel MPI-processes     *
           *              working on a common directory               *
           ************************************************************
------------------------------------------------------------------------------
                           ORCA GTO INTEGRAL CALCULATION
                           -- RI-GTO INTEGRALS CHOSEN --
------------------------------------------------------------------------------
------------------------------------------------------------------------------
                   ___                                                        
                  /   \      - P O W E R E D   B Y -                         
                 /     \                                                     
                 |  |  |   _    _      __       _____    __    __             
                 |  |  |  | |  | |    /  \     |  _  \  |  |  /  |          
                  \  \/   | |  | |   /    \    | | | |  |  | /  /          
                 / \  \   | |__| |  /  /\  \   | |_| |  |  |/  /          
                |  |  |   |  __  | /  /__\  \  |    /   |      \           
                |  |  |   | |  | | |   __   |  |    \   |  |\   \          
                \     /   | |  | | |  |  |  |  | |\  \  |  | \   \       
                 \___/    |_|  |_| |__|  |__|  |_| \__\ |__|  \__/        
                                                                              
                      - O R C A' S   B I G   F R I E N D -                    
                                      &                                       
                       - I N T E G R A L  F E E D E R -                       
                                                                              
 v1 FN, 2020, v2 2021                                                         
------------------------------------------------------------------------------


Reading SHARK input file NC_NH2_4.SHARKINP.tmp ... ok
----------------------
SHARK INTEGRAL PACKAGE
----------------------

Number of atoms                             ...     37
Number of basis functions                   ...    392
Number of shells                            ...    180
Maximum angular momentum                    ...      2
Integral batch strategy                     ... SHARK/LIBINT Hybrid
RI-J (if used) integral strategy            ... SPLIT-RIJ (Revised 2003 algorithm where possible)
Printlevel                                  ...      1
Contraction scheme used                     ... SEGMENTED contraction
Coulomb Range Separation                    ... NOT USED
Exchange Range Separation                   ... NOT USED
Finite Nucleus Model                        ... NOT USED
Auxiliary Coulomb fitting basis             ... AVAILABLE
   # of basis functions in Aux-J            ...   1281
   # of shells in Aux-J                     ...    415
   Maximum angular momentum in Aux-J        ...      4
Auxiliary J/K fitting basis                 ... NOT available
Auxiliary Correlation fitting basis         ... NOT available
Auxiliary 'external' fitting basis          ... NOT available
Integral threshold                          ...     1.000000e-12
Primitive cut-off                           ...     1.000000e-14
Primitive pair pre-selection threshold      ...     1.000000e-14

Calculating pre-screening integrals         ... done (  0.0 sec) Dimension = 180
Organizing shell pair data                  ... done (  0.1 sec)
Shell pair information
Total number of shell pairs                 ...     16290
Shell pairs after pre-screening             ...     12155
Total number of primitive shell pairs       ...     60372
Primitive shell pairs kept                  ...     29276
          la=0 lb=0:   3575 shell pairs
          la=1 lb=0:   4452 shell pairs
          la=1 lb=1:   1428 shell pairs
          la=2 lb=0:   1537 shell pairs
          la=2 lb=1:    978 shell pairs
          la=2 lb=2:    185 shell pairs

Calculating one electron integrals          ... done (  0.0 sec)
Calculating RI/J V-Matrix + Cholesky decomp.... done (  0.3 sec)
Calculating Nuclear repulsion               ... done (  0.0 sec) ENN=   1624.325979533796 Eh

SHARK setup successfully completed in   0.7 seconds

Maximum memory used throughout the entire GTOINT-calculation: 21.8 MB


           ************************************************************
           *        Program running with 8 parallel MPI-processes     *
           *              working on a common directory               *
           ************************************************************
-------------------------------------------------------------------------------
                                 ORCA SCF
-------------------------------------------------------------------------------

------------
SCF SETTINGS
------------
Hamiltonian:
 Density Functional     Method          .... DFT(GTOs)
 Exchange Functional    Exchange        .... B88
   X-Alpha parameter    XAlpha          ....  0.666667
   Becke's b parameter  XBeta           ....  0.004200
 Correlation Functional Correlation     .... LYP
 LDA part of GGA corr.  LDAOpt          .... VWN-5
 Gradients option       PostSCFGGA      .... off
 Hybrid DFT is turned on
   Fraction HF Exchange ScalHFX         ....  0.200000
   Scaling of DF-GGA-X  ScalDFX         ....  0.720000
   Scaling of DF-GGA-C  ScalDFC         ....  0.810000
   Scaling of DF-LDA-C  ScalLDAC        ....  1.000000
   Perturbative correction              ....  0.000000
   Density functional embedding theory  .... OFF
   NL short-range parameter             ....  4.800000
 RI-approximation to the Coulomb term is turned on
   Number of AuxJ basis functions       .... 1281
   RIJ-COSX (HFX calculated with COS-X)).... on


General Settings:
 Integral files         IntName         .... NC_NH2_4
 Hartree-Fock type      HFTyp           .... RHF
 Total Charge           Charge          ....    0
 Multiplicity           Mult            ....    1
 Number of Electrons    NEL             ....  154
 Basis Dimension        Dim             ....  392
 Nuclear Repulsion      ENuc            ....   1624.3259795338 Eh

Convergence Acceleration:
 DIIS                   CNVDIIS         .... on
   Start iteration      DIISMaxIt       ....     0
   Startup error        DIISStart       ....  0.200000
   # of expansion vecs  DIISMaxEq       ....     5
   Bias factor          DIISBfac        ....   1.050
   Max. coefficient     DIISMaxC        ....  10.000
 Trust-Rad. Augm. Hess. CNVTRAH         .... auto
   Auto Start mean grad. ratio tolernc. ....  1.125000
   Auto Start start iteration           ....    20
   Auto Start num. interpolation iter.  ....    10
   Max. Number of Micro iterations      ....    16
   Max. Number of Macro iterations      .... Maxiter - #DIIS iter
   Number of Davidson start vectors     ....     2
   Converg. threshold I  (grad. norm)   ....   2.000e-06
   Converg. threshold II (energy diff.) ....   1.000e-09
   Grad. Scal. Fac. for Micro threshold ....   0.100
   Minimum threshold for Micro iter.    ....   0.010
   NR start threshold (gradient norm)   ....   0.001
   Initial trust radius                 ....   0.400
   Minimum AH scaling param. (alpha)    ....   1.000
   Maximum AH scaling param. (alpha)    .... 1000.000
   Orbital update algorithm             .... Taylor
   White noise on init. David. guess    .... on
   Maximum white noise                  ....   0.010
   Quad. conv. algorithm                .... NR
 SOSCF                  CNVSOSCF        .... on
   Start iteration      SOSCFMaxIt      ....   150
   Startup grad/error   SOSCFStart      ....  0.001000
 Level Shifting         CNVShift        .... on
   Level shift para.    LevelShift      ....    0.2500
   Turn off err/grad.   ShiftErr        ....    0.0000
 Zerner damping         CNVZerner       .... off
 Static damping         CNVDamp         .... on
   Fraction old density DampFac         ....    0.8500
   Max. Damping (<1)    DampMax         ....    0.9800
   Min. Damping (>=0)   DampMin         ....    0.0000
   Turn off err/grad.   DampErr         ....    0.0300
 Fernandez-Rico         CNVRico         .... off

SCF Procedure:
 Maximum # iterations   MaxIter         ....   125
 SCF integral mode      SCFMode         .... Direct
   Integral package                     .... SHARK and LIBINT hybrid scheme
 Reset frequency        DirectResetFreq ....    20
 Integral Threshold     Thresh          ....  1.000e-12 Eh
 Primitive CutOff       TCut            ....  1.000e-14 Eh

Convergence Tolerance:
 Convergence Check Mode ConvCheckMode   .... Total+1el-Energy
 Convergence forced     ConvForced      .... 0
 Energy Change          TolE            ....  1.000e-09 Eh
 1-El. energy change                    ....  1.000e-06 Eh
 Orbital Gradient       TolG            ....  2.000e-06
 Orbital Rotation angle TolX            ....  2.000e-06
 DIIS Error             TolErr          ....  1.000e-08


Diagonalization of the overlap matrix:
Smallest eigenvalue                        ... 2.005e-04
Time for diagonalization                   ...    0.019 sec
Threshold for overlap eigenvalues          ... 1.000e-08
Number of eigenvalues below threshold      ... 0
Time for construction of square roots      ...    0.018 sec
Total time needed                          ...    0.038 sec

Time for model grid setup =    0.349 sec

------------------------------
INITIAL GUESS: MODEL POTENTIAL
------------------------------
Loading Hartree-Fock densities                     ... done
Calculating cut-offs                               ... done
Initializing the effective Hamiltonian             ... done
Setting up the integral package (SHARK)            ... done
Starting the Coulomb interaction                   ... done (   0.2 sec)
Reading the grid                                   ... done
Mapping shells                                     ... done
Starting the XC term evaluation                    ... done (   0.1 sec)
  promolecular density results
     # of electrons  =    153.994450549
     EX              =   -125.282898596
     EC              =     -5.212268946
     EX+EC           =   -130.495167542
Transforming the Hamiltonian                       ... done (   0.0 sec)
Diagonalizing the Hamiltonian                      ... done (   0.0 sec)
Back transforming the eigenvectors                 ... done (   0.0 sec)
Now organizing SCF variables                       ... done
                      ------------------
                      INITIAL GUESS DONE (   0.6 sec)
                      ------------------
-------------------
DFT GRID GENERATION
-------------------

General Integration Accuracy     IntAcc      ... 4.959
Radial Grid Type                 RadialGrid  ... OptM3 with GC (2021)
Angular Grid (max. ang.)         AngularGrid ... 6 (Lebedev-590)
Angular grid pruning method      GridPruning ... 4 (adaptive)
Weight generation scheme         WeightScheme... Becke
Basis function cutoff            BFCut       ... 1.0000e-12
Integration weight cutoff        WCut        ... 1.0000e-14
Angular grids for H and He will be reduced by one unit
Partially contracted basis set               ... off
Rotationally invariant grid construction     ... off

Total number of grid points                  ...   445199
Total number of batches                      ...     6977
Average number of points per batch           ...       63
Average number of grid points per atom       ...    12032
Time for grid setup =    5.038 sec

--------------------
COSX GRID GENERATION
--------------------

GRIDX 1
-------
General Integration Accuracy     IntAcc      ... 4.020
Radial Grid Type                 RadialGrid  ... OptM3 with GC (2021)
Angular Grid (max. ang.)         AngularGrid ... 2 (Lebedev-110)
Angular grid pruning method      GridPruning ... 4 (adaptive)
Weight generation scheme         WeightScheme... Becke
Basis function cutoff            BFCut       ... 1.0000e-12
Integration weight cutoff        WCut        ... 1.0000e-14
Angular grids for H and He will be reduced by one unit
Partially contracted basis set               ... on
Rotationally invariant grid construction     ... off

Total number of grid points                  ...    50694
Total number of batches                      ...      813
Average number of points per batch           ...       62
Average number of grid points per atom       ...     1370
UseSFitting                                  ... on

GRIDX 2
-------
General Integration Accuracy     IntAcc      ... 4.338
Radial Grid Type                 RadialGrid  ... OptM3 with GC (2021)
Angular Grid (max. ang.)         AngularGrid ... 3 (Lebedev-194)
Angular grid pruning method      GridPruning ... 4 (adaptive)
Weight generation scheme         WeightScheme... Becke
Basis function cutoff            BFCut       ... 1.0000e-12
Integration weight cutoff        WCut        ... 1.0000e-14
Angular grids for H and He will be reduced by one unit
Partially contracted basis set               ... on
Rotationally invariant grid construction     ... off

Total number of grid points                  ...   111357
Total number of batches                      ...     1759
Average number of points per batch           ...       63
Average number of grid points per atom       ...     3010
UseSFitting                                  ... on

GRIDX 3
-------
General Integration Accuracy     IntAcc      ... 4.871
Radial Grid Type                 RadialGrid  ... OptM3 with GC (2021)
Angular Grid (max. ang.)         AngularGrid ... 4 (Lebedev-302)
Angular grid pruning method      GridPruning ... 4 (adaptive)
Weight generation scheme         WeightScheme... Becke
Basis function cutoff            BFCut       ... 1.0000e-12
Integration weight cutoff        WCut        ... 1.0000e-14
Angular grids for H and He will be reduced by one unit
Partially contracted basis set               ... on
Rotationally invariant grid construction     ... off

Total number of grid points                  ...   206251
Total number of batches                      ...     3243
Average number of points per batch           ...       63
Average number of grid points per atom       ...     5574
UseSFitting                                  ... on

Time for X-Grid setup             =    2.600 sec

--------------
SCF ITERATIONS
--------------
ITER       Energy         Delta-E        Max-DP      RMS-DP      [F,P]     Damp
               ***  Starting incremental Fock matrix formation  ***
  0   -916.3449085205   0.000000000000 0.04649332  0.00101452  0.2326150 0.8500
  1   -916.4606763266  -0.115767806146 0.04022158  0.00091578  0.1625848 0.8500
                               ***Turning on DIIS***
  2   -916.5388442279  -0.078167901247 0.02904903  0.00072470  0.1067161 0.8500
  3   -916.5903524573  -0.051508229429 0.01720723  0.00050016  0.0710800 0.8500
  4   -916.6286399649  -0.038287507575 0.01230239  0.00037948  0.0541062 0.8500
  5   -916.6581434986  -0.029503533757 0.01046113  0.00030670  0.0445721 0.8500
  6   -916.6819907629  -0.023847264277 0.00906202  0.00025619  0.0376648 0.8500
  7   -916.7016937334  -0.019702970453 0.00789712  0.00021791  0.0319727 0.8500
  8   -916.7181715284  -0.016477795009 0.04571953  0.00124282  0.0267005 0.0000
  9   -916.8061541502  -0.087982621874 0.00510900  0.00005990  0.0060159 0.0000
 10   -916.8061982570  -0.000044106754 0.00223519  0.00002370  0.0056816 0.0000
                      *** Initiating the SOSCF procedure ***
                           *** Shutting down DIIS ***
                      *** Re-Reading the Fockian *** 
                      *** Removing any level shift *** 
ITER      Energy       Delta-E        Grad      Rot      Max-DP    RMS-DP
 11   -916.80624921  -0.0000509504  0.000126  0.000126  0.000623  0.000011
               *** Restarting incremental Fock matrix formation ***
 12   -916.80622964   0.0000195692  0.000264  0.000699  0.001157  0.000011
 13   -916.80622649   0.0000031476  0.000643  0.000470  0.000840  0.000007
 14   -916.80623084  -0.0000043468  0.000008  0.000055  0.000064  0.000001
 15   -916.80623083   0.0000000105  0.000021  0.000081  0.000043  0.000001
 16   -916.80623085  -0.0000000197  0.000004  0.000020  0.000025  0.000001
 17   -916.80623085   0.0000000012  0.000005  0.000009  0.000018  0.000000
 18   -916.80623085  -0.0000000026  0.000001  0.000008  0.000005  0.000000
 19   -916.80623085  -0.0000000001  0.000001  0.000003  0.000003  0.000000
                  ***Gradient check signals convergence***
              ***Rediagonalizing the Fockian in SOSCF/NRSCF***

               *****************************************************
               *                     SUCCESS                       *
               *           SCF CONVERGED AFTER  20 CYCLES          *
               *****************************************************

Old exchange energy                            =    -25.384121081 Eh
New exchange energy                            =    -25.384108516 Eh
Exchange energy change after final integration =      0.000012564 Eh
Total energy after final integration           =   -916.806218284 Eh
Final COS-X integration done in                =    12.796 sec

----------------
TOTAL SCF ENERGY
----------------

Total Energy       :         -916.80621828 Eh          -24947.56551 eV

Components:
Nuclear Repulsion  :         1624.32597953 Eh           44200.15700 eV
Electronic Energy  :        -2541.13219782 Eh          -69147.72250 eV
One Electron Energy:        -4464.54757993 Eh         -121486.51591 eV
Two Electron Energy:         1923.41538211 Eh           52338.79340 eV
Max COSX asymmetry :            0.00000039 Eh               0.00001 eV

Virial components:
Potential Energy   :        -1824.74055235 Eh          -49653.71478 eV
Kinetic Energy     :          907.93433406 Eh           24706.14927 eV
Virial Ratio       :            2.00977150


DFT components:
N(Alpha)           :       77.000004184729 electrons
N(Beta)            :       77.000004184729 electrons
N(Total)           :      154.000008369458 electrons
E(X)               :     -100.844300626325 Eh       
E(C)               :       -6.143621985581 Eh       
E(XC)              :     -106.987922611906 Eh       
DFET-embed. en.    :        0.000000000000 Eh       

---------------
SCF CONVERGENCE
---------------

  Last Energy change         ...    4.9113e-11  Tolerance :   1.0000e-09
  Last MAX-Density change    ...    3.9968e-15  Tolerance :   1.0000e-08
  Last RMS-Density change    ...    4.0928e-17  Tolerance :   1.0000e-09
  Last Orbital Gradient      ...    1.5183e-07  Tolerance :   2.0000e-06
  Last Orbital Rotation      ...    1.8359e-06  Tolerance :   2.0000e-06

             **** THE GBW FILE WAS UPDATED (NC_NH2_4.gbw) ****
             **** DENSITY NC_NH2_4.scfp WAS UPDATED ****
             **** ENERGY FILE WAS UPDATED (NC_NH2_4.en.tmp) ****
             **** THE GBW FILE WAS UPDATED (NC_NH2_4.gbw) ****
             **** DENSITY NC_NH2_4.scfp WAS UPDATED ****
----------------
ORBITAL ENERGIES
----------------

  NO   OCC          E(Eh)            E(eV) 
   0   2.0000     -14.360092      -390.7580 
   1   2.0000     -14.301334      -389.1591 
   2   2.0000     -10.240122      -278.6479 
   3   2.0000     -10.220720      -278.1199 
   4   2.0000     -10.209922      -277.8261 
   5   2.0000     -10.208198      -277.7792 
   6   2.0000     -10.205177      -277.6970 
   7   2.0000     -10.204129      -277.6685 
   8   2.0000     -10.203759      -277.6584 
   9   2.0000     -10.203491      -277.6511 
  10   2.0000     -10.202927      -277.6358 
  11   2.0000     -10.201794      -277.6049 
  12   2.0000     -10.200844      -277.5791 
  13   2.0000     -10.197888      -277.4986 
  14   2.0000     -10.197227      -277.4806 
  15   2.0000     -10.197125      -277.4779 
  16   2.0000     -10.196659      -277.4652 
  17   2.0000     -10.195830      -277.4426 
  18   2.0000     -10.195314      -277.4286 
  19   2.0000     -10.194911      -277.4176 
  20   2.0000     -10.194335      -277.4019 
  21   2.0000     -10.192035      -277.3394 
  22   2.0000     -10.182897      -277.0907 
  23   2.0000      -0.923820       -25.1384 
  24   2.0000      -0.889575       -24.2066 
  25   2.0000      -0.883613       -24.0443 
  26   2.0000      -0.854087       -23.2409 
  27   2.0000      -0.830004       -22.5856 
  28   2.0000      -0.816325       -22.2133 
  29   2.0000      -0.789685       -21.4884 
  30   2.0000      -0.774849       -21.0847 
  31   2.0000      -0.748317       -20.3627 
  32   2.0000      -0.741994       -20.1907 
  33   2.0000      -0.725274       -19.7357 
  34   2.0000      -0.704998       -19.1840 
  35   2.0000      -0.665853       -18.1188 
  36   2.0000      -0.635598       -17.2955 
  37   2.0000      -0.629776       -17.1371 
  38   2.0000      -0.616431       -16.7739 
  39   2.0000      -0.603054       -16.4099 
  40   2.0000      -0.589069       -16.0294 
  41   2.0000      -0.551370       -15.0036 
  42   2.0000      -0.544821       -14.8253 
  43   2.0000      -0.539143       -14.6708 
  44   2.0000      -0.522241       -14.2109 
  45   2.0000      -0.516401       -14.0520 
  46   2.0000      -0.505024       -13.7424 
  47   2.0000      -0.501906       -13.6576 
  48   2.0000      -0.476737       -12.9727 
  49   2.0000      -0.468492       -12.7483 
  50   2.0000      -0.457936       -12.4611 
  51   2.0000      -0.446833       -12.1589 
  52   2.0000      -0.439068       -11.9476 
  53   2.0000      -0.429106       -11.6766 
  54   2.0000      -0.422052       -11.4846 
  55   2.0000      -0.418281       -11.3820 
  56   2.0000      -0.406471       -11.0606 
  57   2.0000      -0.401819       -10.9341 
  58   2.0000      -0.395137       -10.7522 
  59   2.0000      -0.388245       -10.5647 
  60   2.0000      -0.380200       -10.3458 
  61   2.0000      -0.377071       -10.2606 
  62   2.0000      -0.367293        -9.9946 
  63   2.0000      -0.358636        -9.7590 
  64   2.0000      -0.358224        -9.7478 
  65   2.0000      -0.348809        -9.4916 
  66   2.0000      -0.339825        -9.2471 
  67   2.0000      -0.336242        -9.1496 
  68   2.0000      -0.325152        -8.8478 
  69   2.0000      -0.320806        -8.7296 
  70   2.0000      -0.317594        -8.6422 
  71   2.0000      -0.292421        -7.9572 
  72   2.0000      -0.271435        -7.3861 
  73   2.0000      -0.262495        -7.1428 
  74   2.0000      -0.238944        -6.5020 
  75   2.0000      -0.226492        -6.1632 
  76   2.0000      -0.186778        -5.0825 
  77   0.0000      -0.085957        -2.3390 
  78   0.0000      -0.045758        -1.2451 
  79   0.0000      -0.034454        -0.9375 
  80   0.0000      -0.014477        -0.3939 
  81   0.0000       0.010583         0.2880 
  82   0.0000       0.026603         0.7239 
  83   0.0000       0.037337         1.0160 
  84   0.0000       0.053962         1.4684 
  85   0.0000       0.056517         1.5379 
  86   0.0000       0.066454         1.8083 
  87   0.0000       0.071358         1.9417 
  88   0.0000       0.074068         2.0155 
  89   0.0000       0.085816         2.3352 
  90   0.0000       0.091870         2.4999 
  91   0.0000       0.103499         2.8163 
  92   0.0000       0.104958         2.8560 
  93   0.0000       0.113495         3.0884 
  94   0.0000       0.121916         3.3175 
  95   0.0000       0.126603         3.4450 
  96   0.0000       0.135788         3.6950 
  97   0.0000       0.151160         4.1133 
  98   0.0000       0.162517         4.4223 
  99   0.0000       0.170490         4.6393 
 100   0.0000       0.183446         4.9918 
 101   0.0000       0.193815         5.2740 
 102   0.0000       0.214678         5.8417 
 103   0.0000       0.218523         5.9463 
 104   0.0000       0.232369         6.3231 
 105   0.0000       0.238167         6.4809 
 106   0.0000       0.239596         6.5197 
 107   0.0000       0.249528         6.7900 
 108   0.0000       0.257677         7.0117 
 109   0.0000       0.266957         7.2643 
 110   0.0000       0.269266         7.3271 
 111   0.0000       0.274535         7.4705 
 112   0.0000       0.286989         7.8094 
 113   0.0000       0.294949         8.0260 
 114   0.0000       0.298055         8.1105 
 115   0.0000       0.313855         8.5404 
 116   0.0000       0.314270         8.5517 
 117   0.0000       0.323457         8.8017 
 118   0.0000       0.324978         8.8431 
 119   0.0000       0.333121         9.0647 
 120   0.0000       0.335861         9.1392 
 121   0.0000       0.339604         9.2411 
 122   0.0000       0.349889         9.5210 
 123   0.0000       0.356311         9.6957 
 124   0.0000       0.364240         9.9115 
 125   0.0000       0.368727        10.0336 
 126   0.0000       0.374974        10.2036 
 127   0.0000       0.388069        10.5599 
 128   0.0000       0.397524        10.8172 
 129   0.0000       0.406300        11.0560 
 130   0.0000       0.419074        11.4036 
 131   0.0000       0.426667        11.6102 
 132   0.0000       0.432152        11.7594 
 133   0.0000       0.443470        12.0674 
 134   0.0000       0.448203        12.1962 
 135   0.0000       0.453943        12.3524 
 136   0.0000       0.455691        12.4000 
 137   0.0000       0.465914        12.6782 
 138   0.0000       0.473327        12.8799 
 139   0.0000       0.476425        12.9642 
 140   0.0000       0.477845        13.0028 
 141   0.0000       0.481243        13.0953 
 142   0.0000       0.485531        13.2120 
 143   0.0000       0.488881        13.3031 
 144   0.0000       0.499954        13.6044 
 145   0.0000       0.507367        13.8062 
 146   0.0000       0.511901        13.9295 
 147   0.0000       0.515772        14.0349 
 148   0.0000       0.524714        14.2782 
 149   0.0000       0.530740        14.4422 
 150   0.0000       0.540505        14.7079 
 151   0.0000       0.543901        14.8003 
 152   0.0000       0.547951        14.9105 
 153   0.0000       0.559087        15.2135 
 154   0.0000       0.566800        15.4234 
 155   0.0000       0.577319        15.7096 
 156   0.0000       0.579979        15.7820 
 157   0.0000       0.590158        16.0590 
 158   0.0000       0.598152        16.2765 
 159   0.0000       0.601844        16.3770 
 160   0.0000       0.623212        16.9585 
 161   0.0000       0.627227        17.0677 
 162   0.0000       0.635672        17.2975 
 163   0.0000       0.637792        17.3552 
 164   0.0000       0.640594        17.4314 
 165   0.0000       0.641490        17.4558 
 166   0.0000       0.647675        17.6241 
 167   0.0000       0.649350        17.6697 
 168   0.0000       0.657040        17.8790 
 169   0.0000       0.662464        18.0266 
 170   0.0000       0.667625        18.1670 
 171   0.0000       0.674423        18.3520 
 172   0.0000       0.677713        18.4415 
 173   0.0000       0.684675        18.6309 
 174   0.0000       0.691798        18.8248 
 175   0.0000       0.695663        18.9300 
 176   0.0000       0.697617        18.9831 
 177   0.0000       0.707832        19.2611 
 178   0.0000       0.709277        19.3004 
 179   0.0000       0.721596        19.6356 
 180   0.0000       0.730859        19.8877 
 181   0.0000       0.735898        20.0248 
 182   0.0000       0.742529        20.2052 
 183   0.0000       0.744903        20.2698 
 184   0.0000       0.753043        20.4913 
 185   0.0000       0.754203        20.5229 
 186   0.0000       0.756168        20.5764 
 187   0.0000       0.766654        20.8617 
 188   0.0000       0.772175        21.0120 
 189   0.0000       0.781661        21.2701 
 190   0.0000       0.785858        21.3843 
 191   0.0000       0.796964        21.6865 
 192   0.0000       0.802421        21.8350 
 193   0.0000       0.807608        21.9761 
 194   0.0000       0.828635        22.5483 
 195   0.0000       0.838816        22.8253 
 196   0.0000       0.849520        23.1166 
 197   0.0000       0.852318        23.1928 
 198   0.0000       0.857636        23.3375 
 199   0.0000       0.865346        23.5473 
 200   0.0000       0.883645        24.0452 
 201   0.0000       0.886684        24.1279 
 202   0.0000       0.896414        24.3927 
 203   0.0000       0.902590        24.5607 
 204   0.0000       0.928470        25.2650 
 205   0.0000       0.942528        25.6475 
 206   0.0000       0.984268        26.7833 
 207   0.0000       0.995966        27.1016 
 208   0.0000       1.011361        27.5205 
 209   0.0000       1.018951        27.7271 
 210   0.0000       1.029377        28.0108 
 211   0.0000       1.036233        28.1973 
 212   0.0000       1.058508        28.8035 
 213   0.0000       1.084979        29.5238 
 214   0.0000       1.096739        29.8438 
 215   0.0000       1.104985        30.0682 
 216   0.0000       1.111052        30.2333 
 217   0.0000       1.127225        30.6734 
 218   0.0000       1.130293        30.7568 
 219   0.0000       1.141673        31.0665 
 220   0.0000       1.158974        31.5373 
 221   0.0000       1.179114        32.0853 
 222   0.0000       1.184007        32.2185 
 223   0.0000       1.204289        32.7704 
 224   0.0000       1.214148        33.0386 
 225   0.0000       1.220204        33.2034 
 226   0.0000       1.227847        33.4114 
 227   0.0000       1.243246        33.8304 
 228   0.0000       1.246234        33.9118 
 229   0.0000       1.248557        33.9750 
 230   0.0000       1.258331        34.2409 
 231   0.0000       1.266465        34.4623 
 232   0.0000       1.270968        34.5848 
 233   0.0000       1.281438        34.8697 
 234   0.0000       1.285658        34.9845 
 235   0.0000       1.292349        35.1666 
 236   0.0000       1.306406        35.5491 
 237   0.0000       1.308023        35.5931 
 238   0.0000       1.330690        36.2099 
 239   0.0000       1.338465        36.4215 
 240   0.0000       1.339253        36.4429 
 241   0.0000       1.360649        37.0251 
 242   0.0000       1.371495        37.3203 
 243   0.0000       1.376370        37.4529 
 244   0.0000       1.385305        37.6961 
 245   0.0000       1.396099        37.9898 
 246   0.0000       1.411875        38.4191 
 247   0.0000       1.433103        38.9967 
 248   0.0000       1.445981        39.3472 
 249   0.0000       1.479247        40.2524 
 250   0.0000       1.502690        40.8903 
 251   0.0000       1.514987        41.2249 
 252   0.0000       1.529253        41.6131 
 253   0.0000       1.612496        43.8782 
 254   0.0000       1.624211        44.1970 
 255   0.0000       1.629997        44.3545 
 256   0.0000       1.634093        44.4659 
 257   0.0000       1.645762        44.7835 
 258   0.0000       1.652556        44.9683 
 259   0.0000       1.663618        45.2694 
 260   0.0000       1.667812        45.3835 
 261   0.0000       1.677313        45.6420 
 262   0.0000       1.680081        45.7173 
 263   0.0000       1.680778        45.7363 
 264   0.0000       1.689684        45.9786 
 265   0.0000       1.706856        46.4459 
 266   0.0000       1.713059        46.6147 
 267   0.0000       1.719933        46.8017 
 268   0.0000       1.725126        46.9431 
 269   0.0000       1.736902        47.2635 
 270   0.0000       1.740103        47.3506 
 271   0.0000       1.743886        47.4536 
 272   0.0000       1.749473        47.6056 
 273   0.0000       1.754433        47.7406 
 274   0.0000       1.758242        47.8442 
 275   0.0000       1.761503        47.9329 
 276   0.0000       1.768953        48.1357 
 277   0.0000       1.771367        48.2014 
 278   0.0000       1.773525        48.2601 
 279   0.0000       1.790620        48.7252 
 280   0.0000       1.794972        48.8437 
 281   0.0000       1.805985        49.1434 
 282   0.0000       1.817924        49.4682 
 283   0.0000       1.828176        49.7472 
 284   0.0000       1.844365        50.1877 
 285   0.0000       1.849596        50.3301 
 286   0.0000       1.859181        50.5909 
 287   0.0000       1.873972        50.9934 
 288   0.0000       1.892469        51.4967 
 289   0.0000       1.903342        51.7926 
 290   0.0000       1.906241        51.8715 
 291   0.0000       1.920194        52.2511 
 292   0.0000       1.927181        52.4413 
 293   0.0000       1.947322        52.9893 
 294   0.0000       1.954445        53.1832 
 295   0.0000       1.966016        53.4980 
 296   0.0000       1.975918        53.7675 
 297   0.0000       1.982112        53.9360 
 298   0.0000       1.998569        54.3838 
 299   0.0000       2.002310        54.4856 
 300   0.0000       2.005460        54.5713 
 301   0.0000       2.014554        54.8188 
 302   0.0000       2.039964        55.5103 
 303   0.0000       2.044354        55.6297 
 304   0.0000       2.053363        55.8748 
 305   0.0000       2.062775        56.1310 
 306   0.0000       2.071635        56.3720 
 307   0.0000       2.079559        56.5877 
 308   0.0000       2.088301        56.8256 
 309   0.0000       2.094857        57.0039 
 310   0.0000       2.103956        57.2516 
 311   0.0000       2.116317        57.5879 
 312   0.0000       2.137677        58.1692 
 313   0.0000       2.152222        58.5649 
 314   0.0000       2.168996        59.0214 
 315   0.0000       2.177030        59.2400 
 316   0.0000       2.188034        59.5394 
 317   0.0000       2.192612        59.6640 
 318   0.0000       2.203023        59.9473 
 319   0.0000       2.215057        60.2748 
 320   0.0000       2.222626        60.4807 
 321   0.0000       2.225748        60.5657 
 322   0.0000       2.253900        61.3317 
 323   0.0000       2.258160        61.4476 
 324   0.0000       2.262111        61.5552 
 325   0.0000       2.270244        61.7765 
 326   0.0000       2.275780        61.9271 
 327   0.0000       2.285018        62.1785 
 328   0.0000       2.295143        62.4540 
 329   0.0000       2.297822        62.5269 
 330   0.0000       2.310969        62.8847 
 331   0.0000       2.322026        63.1855 
 332   0.0000       2.330284        63.4103 
 333   0.0000       2.338160        63.6246 
 334   0.0000       2.347428        63.8768 
 335   0.0000       2.366737        64.4022 
 336   0.0000       2.375868        64.6507 
 337   0.0000       2.396501        65.2121 
 338   0.0000       2.415020        65.7160 
 339   0.0000       2.429951        66.1223 
 340   0.0000       2.450397        66.6787 
 341   0.0000       2.481906        67.5361 
 342   0.0000       2.483697        67.5848 
 343   0.0000       2.495045        67.8936 
 344   0.0000       2.527136        68.7669 
 345   0.0000       2.542144        69.1753 
 346   0.0000       2.563417        69.7541 
 347   0.0000       2.573595        70.0311 
 348   0.0000       2.589740        70.4704 
 349   0.0000       2.597688        70.6867 
 350   0.0000       2.603388        70.8418 
 351   0.0000       2.620870        71.3175 
 352   0.0000       2.640851        71.8612 
 353   0.0000       2.658551        72.3429 
 354   0.0000       2.666152        72.5497 
 355   0.0000       2.678117        72.8753 
 356   0.0000       2.692117        73.2562 
 357   0.0000       2.695274        73.3421 
 358   0.0000       2.729781        74.2811 
 359   0.0000       2.733240        74.3752 
 360   0.0000       2.752850        74.9089 
 361   0.0000       2.766119        75.2699 
 362   0.0000       2.768698        75.3401 
 363   0.0000       2.774198        75.4898 
 364   0.0000       2.787095        75.8407 
 365   0.0000       2.801467        76.2318 
 366   0.0000       2.825144        76.8761 
 367   0.0000       2.864150        77.9375 
 368   0.0000       2.909768        79.1788 
 369   0.0000       2.926931        79.6458 
 370   0.0000       2.939098        79.9769 
 371   0.0000       2.946208        80.1704 
 372   0.0000       2.966268        80.7163 
 373   0.0000       2.979118        81.0659 
 374   0.0000       2.989832        81.3575 
 375   0.0000       3.007060        81.8263 
 376   0.0000       3.010850        81.9294 
 377   0.0000       3.033761        82.5528 
 378   0.0000       3.062196        83.3266 
 379   0.0000       3.091296        84.1185 
 380   0.0000       3.140490        85.4571 
 381   0.0000       3.184889        86.6652 
 382   0.0000       3.235013        88.0292 
 383   0.0000       3.287731        89.4637 
 384   0.0000       3.336443        90.7892 
 385   0.0000       3.375036        91.8394 
 386   0.0000       3.445785        93.7646 
 387   0.0000       3.494712        95.0960 
 388   0.0000       3.532939        96.1361 
 389   0.0000       3.583920        97.5234 
 390   0.0000       3.635503        98.9271 
 391   0.0000       4.287753       116.6757 

                    ********************************
                    * MULLIKEN POPULATION ANALYSIS *
                    ********************************

-----------------------
MULLIKEN ATOMIC CHARGES
-----------------------
   0 C :    0.006691
   1 C :   -0.024249
   2 C :   -0.033022
   3 C :    0.071600
   4 C :   -0.012630
   5 C :   -0.032388
   6 C :    0.053737
   7 C :    0.085757
   8 C :   -0.046308
   9 C :   -0.025213
  10 C :    0.059913
  11 C :   -0.007507
  12 C :   -0.057566
  13 C :    0.090517
  14 C :    0.053631
  15 C :    0.067002
  16 C :    0.078321
  17 C :   -0.057315
  18 C :    0.211251
  19 C :    0.025756
  20 C :   -0.149113
  21 N :   -0.097427
  22 N :    0.028993
  23 H :   -0.019455
  24 H :   -0.032351
  25 H :   -0.034411
  26 H :   -0.036493
  27 H :   -0.033111
  28 H :   -0.032766
  29 H :   -0.030194
  30 H :   -0.023555
  31 H :   -0.001814
  32 H :   -0.029119
  33 H :   -0.261840
  34 H :    0.004924
  35 H :    0.124680
  36 H :    0.115073
Sum of atomic charges:   -0.0000000

--------------------------------
MULLIKEN REDUCED ORBITAL CHARGES
--------------------------------
  0 C s       :     3.121507  s :     3.121507
      pz      :     1.018707  p :     2.830738
      px      :     0.867202
      py      :     0.944830
      dz2     :     0.003159  d :     0.041064
      dxz     :     0.005644
      dyz     :     0.005833
      dx2y2   :     0.013640
      dxy     :     0.012789
  1 C s       :     3.232046  s :     3.232046
      pz      :     0.969974  p :     2.757059
      px      :     0.970193
      py      :     0.816892
      dz2     :     0.002589  d :     0.035144
      dxz     :     0.007150
      dyz     :     0.002186
      dx2y2   :     0.012895
      dxy     :     0.010324
  2 C s       :     3.244514  s :     3.244514
      pz      :     1.001890  p :     2.753967
      px      :     0.811103
      py      :     0.940975
      dz2     :     0.002591  d :     0.034541
      dxz     :     0.003605
      dyz     :     0.005072
      dx2y2   :     0.011612
      dxy     :     0.011660
  3 C s       :     3.114515  s :     3.114515
      pz      :     0.956366  p :     2.770876
      px      :     0.961080
      py      :     0.853430
      dz2     :     0.003208  d :     0.043009
      dxz     :     0.005945
      dyz     :     0.006986
      dx2y2   :     0.013165
[...]
     90       0.793167  -0.000028   0.000009
     91      -0.443570  -0.000024  -0.000012
     92       0.073596   0.000024   0.000000
     93       0.301920   0.000129   0.000024
     94       0.175931   0.000099   0.000017
     95      -0.079658  -0.000018  -0.000002
     96      -0.002737  -0.001727   0.001581
     97      -0.001555   0.000405  -0.001005
     98       0.001013  -0.002664  -0.000162
     99       0.033312   0.000070   0.000012
    100       0.023625   0.000069   0.000014
    101      -0.012087  -0.000019  -0.000003
    102      -0.000371   0.006651  -0.011637
    103      -0.000241   0.003763  -0.006051
    104       0.000205  -0.002798   0.007183
    105      -0.000024   0.027769   0.051711
    106       0.000065  -0.478473  -0.595556
    107      -0.000092   0.395151   0.506662
    108      -0.000069   0.677062  -0.538401
    109      -0.000038   0.335282  -0.260562
    110       0.000002  -0.200485   0.143992


-----------
IR SPECTRUM
-----------

 Mode   freq       eps      Int      T**2         TX        TY        TZ
       cm**-1   L/(mol*cm) km/mol    a.u.
----------------------------------------------------------------------------
  6:     24.79   0.000013    0.06  0.000159  (-0.000282  0.012609  0.000617)
  7:     53.83   0.000576    2.91  0.003340  ( 0.033362 -0.042777 -0.019916)
  8:     64.29   0.000940    4.75  0.004565  ( 0.025746  0.023559  0.057856)
  9:     68.36   0.000090    0.46  0.000412  (-0.013537 -0.012665  0.008270)
 10:     96.61   0.002290   11.57  0.007395  (-0.005122 -0.082853  0.022463)
 11:    101.17   0.000009    0.05  0.000028  (-0.003904 -0.000967 -0.003393)
 12:    118.38   0.000190    0.96  0.000501  ( 0.013820  0.011051  0.013701)
 13:    146.45   0.000357    1.81  0.000761  (-0.009665  0.025835 -0.000714)
 14:    193.28   0.002027   10.24  0.003273  (-0.003251 -0.038380  0.042296)
 15:    220.84   0.000769    3.89  0.001087  (-0.002769  0.005322 -0.032414)
 16:    221.60   0.000254    1.28  0.000357  ( 0.013400 -0.011055 -0.007462)
 17:    256.23   0.000223    1.13  0.000272  (-0.015809  0.004047  0.002365)
 18:    268.91   0.000349    1.76  0.000405  (-0.004228  0.019509  0.002504)
 19:    290.27   0.000691    3.49  0.000743  (-0.003935  0.026784 -0.003157)
 20:    310.80   0.007818   39.51  0.007850  ( 0.037209 -0.079071 -0.014602)
 21:    343.50   0.008245   41.67  0.007490  ( 0.021076 -0.081075 -0.021751)
 22:    368.67   0.000474    2.40  0.000402  ( 0.004760 -0.016479  0.010364)
 23:    378.80   0.081974  414.26  0.067532  ( 0.084227 -0.232533 -0.079789)
 24:    419.90   0.004528   22.88  0.003365  ( 0.029831 -0.049690 -0.002546)
 25:    440.10   0.007078   35.77  0.005019  ( 0.031831 -0.061434 -0.015223)
 26:    450.96   0.000021    0.10  0.000014  ( 0.001818 -0.001692  0.002863)
 27:    494.17   0.002450   12.38  0.001547  (-0.022263  0.032385 -0.001582)
 28:    500.31   0.020315  102.67  0.012671  (-0.052569  0.085805  0.050452)
 29:    510.49   0.002043   10.32  0.001249  ( 0.015487 -0.020297 -0.024433)
 30:    514.12   0.000351    1.77  0.000213  ( 0.003886 -0.013950 -0.001747)
 31:    527.64   0.000192    0.97  0.000114  (-0.002728  0.009387 -0.004261)
 32:    530.62   0.000887    4.48  0.000522  ( 0.001850  0.022572 -0.002933)
 33:    562.54   0.000033    0.17  0.000019  (-0.000534  0.004209  0.000734)
 34:    565.69   0.000282    1.42  0.000156  (-0.006253  0.010750  0.000914)
 35:    581.10   0.001334    6.74  0.000716  (-0.015335  0.015261  0.015760)
 36:    620.06   0.001307    6.61  0.000658  (-0.009678  0.023713 -0.001411)
 37:    632.23   0.000134    0.68  0.000066  (-0.004315  0.006471 -0.002370)
 38:    677.12   0.000141    0.71  0.000065  (-0.002085  0.005228  0.005757)
 39:    702.22   0.000279    1.41  0.000124  (-0.007210  0.008425 -0.000935)
 40:    718.05   0.001116    5.64  0.000485  ( 0.000843 -0.001862  0.021924)
 41:    755.16   0.002436   12.31  0.001007  (-0.003241  0.003304  0.031387)
 42:    763.22   0.000301    1.52  0.000123  (-0.003989  0.004754 -0.009189)
 43:    780.29   0.000091    0.46  0.000036  (-0.004272  0.004264 -0.000133)
 44:    813.38   0.005056   25.55  0.001940  ( 0.018586 -0.039931  0.000075)
 45:    815.87   0.000479    2.42  0.000183  ( 0.006153 -0.006152  0.010371)
 46:    826.76   0.000699    3.53  0.000264  (-0.000478  0.013102 -0.009593)
 47:    842.57   0.003610   18.25  0.001337  ( 0.009201  0.003506  0.035218)
 48:    853.36   0.000068    0.34  0.000025  (-0.001491 -0.002071  0.004292)
 49:    872.52   0.006055   30.60  0.002166  ( 0.006418 -0.008775  0.045250)
 50:    881.98   0.000153    0.77  0.000054  (-0.005590 -0.001375 -0.004593)
 51:    886.10   0.006488   32.79  0.002285  ( 0.007567 -0.010721 -0.045963)
 52:    940.76   0.000609    3.08  0.000202  ( 0.004387 -0.003080  0.013162)
 53:    970.45   0.012614   63.75  0.004056  ( 0.032908 -0.038523  0.038592)
 54:    981.85   0.006767   34.20  0.002151  ( 0.007674 -0.028412 -0.035844)
 55:    986.58   0.000743    3.75  0.000235  ( 0.001978  0.000235  0.015201)
 56:    992.09   0.000115    0.58  0.000036  (-0.003468  0.000476 -0.004906)
 57:    998.42   0.000752    3.80  0.000235  ( 0.007594 -0.013018 -0.002824)
 58:   1001.44   0.001644    8.31  0.000512  (-0.008781  0.003038 -0.020638)
 59:   1010.49   0.000165    0.83  0.000051  (-0.001782  0.006906  0.000368)
 60:   1014.14   0.000023    0.12  0.000007  (-0.001541  0.001474 -0.001622)
 61:   1038.71   0.000092    0.47  0.000028  ( 0.005159 -0.000476 -0.000905)
 62:   1072.04   0.003268   16.52  0.000951  (-0.009719  0.029269 -0.000445)
 63:   1120.83   0.000269    1.36  0.000075  (-0.001647  0.008489  0.000154)
 64:   1132.43   0.000130    0.66  0.000036  (-0.004112  0.004285 -0.000717)
 65:   1178.62   0.000247    1.25  0.000065  (-0.002014  0.007711 -0.001401)
 66:   1185.67   0.000101    0.51  0.000027  (-0.003710  0.003533  0.000633)
 67:   1200.72   0.001150    5.81  0.000299  ( 0.001233  0.017201 -0.001177)
 68:   1209.35   0.003696   18.68  0.000954  (-0.030752  0.001963 -0.002073)
 69:   1241.49   0.012616   63.76  0.003171  (-0.035157  0.043655 -0.005431)
 70:   1257.88   0.063960  323.23  0.015868  (-0.060854  0.109387 -0.014104)
 71:   1264.80   0.012990   65.64  0.003205  ( 0.026312 -0.049877  0.004979)
 72:   1271.00   0.000839    4.24  0.000206  (-0.006671  0.012639 -0.001294)
 73:   1278.70   0.002413   12.20  0.000589  (-0.018471  0.015725 -0.000714)
 74:   1290.57   0.009234   46.67  0.002233  ( 0.031294 -0.034722  0.006926)
 75:   1325.95   0.016943   85.62  0.003987  (-0.032302  0.053603 -0.008411)
 76:   1329.02   0.000277    1.40  0.000065  ( 0.004040 -0.006212  0.003193)
 77:   1332.27   0.004919   24.86  0.001152  ( 0.006126 -0.032841  0.006021)
 78:   1368.76   0.000062    0.31  0.000014  ( 0.003015  0.002188 -0.000455)
 79:   1379.52   0.003524   17.81  0.000797  (-0.024730  0.013442 -0.002192)
 80:   1405.96   0.000786    3.97  0.000174  (-0.003858  0.012603 -0.000827)
 81:   1411.26   0.001017    5.14  0.000225  ( 0.006662 -0.013392  0.001091)
 82:   1424.79   0.004014   20.29  0.000879  (-0.005343  0.029043 -0.002690)
 83:   1441.23   0.001632    8.25  0.000353  (-0.011037  0.015085 -0.001986)
 84:   1466.30   0.001196    6.04  0.000255  (-0.012983  0.009249 -0.000667)
 85:   1504.35   0.000513    2.59  0.000106  (-0.009317 -0.004423  0.000322)
 86:   1534.56   0.002175   10.99  0.000442  ( 0.018217 -0.010320  0.001969)
 87:   1545.85   0.009146   46.22  0.001846  ( 0.019881 -0.037877  0.004053)
 88:   1572.65   0.005505   27.82  0.001092  (-0.021721  0.024676 -0.003428)
 89:   1613.60   0.002495   12.61  0.000483  ( 0.014942  0.015283  0.005079)
 90:   1622.32   0.000298    1.50  0.000057  (-0.006877  0.000667 -0.003085)
 91:   1636.82   0.100651  508.65  0.019189  ( 0.080245 -0.111813  0.015745)
 92:   1655.77   0.004969   25.11  0.000936  (-0.004981 -0.030121  0.002088)
 93:   1661.89   0.035299  178.39  0.006628  (-0.043160  0.068390 -0.009401)
 94:   1673.57   0.003256   16.45  0.000607  (-0.006807  0.023614 -0.001766)
 95:   1712.30   0.146733  741.53  0.026742  ( 0.093263 -0.132475  0.022229)
 96:   2336.59   0.031080  157.07  0.004151  (-0.040687  0.049668 -0.005353)
 97:   3159.38   0.004158   21.01  0.000411  (-0.016397  0.011910  0.000020)
 98:   3167.75   0.002819   14.25  0.000278  (-0.016005  0.004040  0.002285)
 99:   3170.71   0.001051    5.31  0.000103  (-0.009836 -0.000564  0.002523)
100:   3172.55   0.000774    3.91  0.000076  ( 0.005693 -0.006607 -0.000312)
101:   3172.97   0.001540    7.78  0.000151  ( 0.012101  0.001482  0.001690)
102:   3174.28   0.002194   11.09  0.000216  ( 0.014122 -0.003724  0.001534)
103:   3177.31   0.000786    3.97  0.000077  (-0.006792 -0.005568 -0.000258)
104:   3191.81   0.003847   19.44  0.000376  ( 0.006274  0.018325 -0.000982)
105:   3192.44   0.001471    7.44  0.000144  ( 0.003619 -0.011433  0.000099)
106:   3196.69   0.002164   10.94  0.000211  ( 0.007032  0.012712 -0.000471)
107:   3213.56   0.002930   14.81  0.000285  ( 0.016739 -0.002051  0.000373)
108:   3217.15   0.002440   12.33  0.000237  (-0.014678  0.004578 -0.000580)
109:   3572.21   0.029507  149.11  0.002578  ( 0.032728 -0.037089  0.011442)
110:   3687.89   0.007742   39.13  0.000655  (-0.004525 -0.021167  0.013661)

* The epsilon (eps) is given for a Dirac delta lineshape.
** The dipole moment derivative (T) already includes vibrational overlap.

The first frequency considered to be a vibration is 6
The total number of vibrations considered is 105


--------------------------
THERMOCHEMISTRY AT 298.15K
--------------------------

Temperature         ... 298.15 K
Pressure            ... 1.00 atm
Total Mass          ... 294.36 AMU

Throughout the following assumptions are being made:
  (1) The electronic state is orbitally nondegenerate
  (2) There are no thermally accessible electronically excited states
  (3) Hindered rotations indicated by low frequency modes are not
      treated as such but are treated as vibrations and this may
      cause some error
  (4) All equations used are the standard statistical mechanics
      equations for an ideal gas
  (5) All vibrations are strictly harmonic

freq.      24.79  E(vib)   ...       0.56 
freq.      53.83  E(vib)   ...       0.52 
freq.      64.29  E(vib)   ...       0.51 
freq.      68.36  E(vib)   ...       0.50 
freq.      96.61  E(vib)   ...       0.47 
freq.     101.17  E(vib)   ...       0.46 
freq.     118.38  E(vib)   ...       0.44 
freq.     146.45  E(vib)   ...       0.41 
freq.     193.28  E(vib)   ...       0.36 
freq.     220.84  E(vib)   ...       0.33 
freq.     221.60  E(vib)   ...       0.33 
freq.     256.23  E(vib)   ...       0.30 
freq.     268.91  E(vib)   ...       0.29 
freq.     290.27  E(vib)   ...       0.27 
freq.     310.80  E(vib)   ...       0.26 
freq.     343.50  E(vib)   ...       0.23 
freq.     368.67  E(vib)   ...       0.21 
freq.     378.80  E(vib)   ...       0.21 
freq.     419.90  E(vib)   ...       0.18 
freq.     440.10  E(vib)   ...       0.17 
freq.     450.96  E(vib)   ...       0.17 
freq.     494.17  E(vib)   ...       0.14 
freq.     500.31  E(vib)   ...       0.14 
freq.     510.49  E(vib)   ...       0.14 
freq.     514.12  E(vib)   ...       0.13 
freq.     527.64  E(vib)   ...       0.13 
freq.     530.62  E(vib)   ...       0.13 
freq.     562.54  E(vib)   ...       0.11 
freq.     565.69  E(vib)   ...       0.11 
freq.     581.10  E(vib)   ...       0.11 
freq.     620.06  E(vib)   ...       0.09 
freq.     632.23  E(vib)   ...       0.09 
freq.     677.12  E(vib)   ...       0.08 
freq.     702.22  E(vib)   ...       0.07 
freq.     718.05  E(vib)   ...       0.07 
freq.     755.16  E(vib)   ...       0.06 
freq.     763.22  E(vib)   ...       0.06 
freq.     780.29  E(vib)   ...       0.05 
freq.     813.38  E(vib)   ...       0.05 
freq.     815.87  E(vib)   ...       0.05 
freq.     826.76  E(vib)   ...       0.04 
freq.     842.57  E(vib)   ...       0.04 
freq.     853.36  E(vib)   ...       0.04 
freq.     872.52  E(vib)   ...       0.04 
freq.     881.98  E(vib)   ...       0.04 
freq.     886.10  E(vib)   ...       0.04 
freq.     940.76  E(vib)   ...       0.03 
freq.     970.45  E(vib)   ...       0.03 
freq.     981.85  E(vib)   ...       0.02 
freq.     986.58  E(vib)   ...       0.02 
freq.     992.09  E(vib)   ...       0.02 
freq.     998.42  E(vib)   ...       0.02 
freq.    1001.44  E(vib)   ...       0.02 
freq.    1010.49  E(vib)   ...       0.02 
freq.    1014.14  E(vib)   ...       0.02 
freq.    1038.71  E(vib)   ...       0.02 
freq.    1072.04  E(vib)   ...       0.02 
freq.    1120.83  E(vib)   ...       0.01 
freq.    1132.43  E(vib)   ...       0.01 
freq.    1178.62  E(vib)   ...       0.01 
freq.    1185.67  E(vib)   ...       0.01 
freq.    1200.72  E(vib)   ...       0.01 
freq.    1209.35  E(vib)   ...       0.01 
freq.    1241.49  E(vib)   ...       0.01 
freq.    1257.88  E(vib)   ...       0.01 
freq.    1264.80  E(vib)   ...       0.01 
freq.    1271.00  E(vib)   ...       0.01 
freq.    1278.70  E(vib)   ...       0.01 
freq.    1290.57  E(vib)   ...       0.01 
freq.    1325.95  E(vib)   ...       0.01 
freq.    1329.02  E(vib)   ...       0.01 
freq.    1332.27  E(vib)   ...       0.01 
freq.    1368.76  E(vib)   ...       0.01 
freq.    1379.52  E(vib)   ...       0.01 
freq.    1405.96  E(vib)   ...       0.00 
freq.    1411.26  E(vib)   ...       0.00 
freq.    1424.79  E(vib)   ...       0.00 
freq.    1441.23  E(vib)   ...       0.00 
freq.    1466.30  E(vib)   ...       0.00 
freq.    1504.35  E(vib)   ...       0.00 
freq.    1534.56  E(vib)   ...       0.00 
freq.    1545.85  E(vib)   ...       0.00 
freq.    1572.65  E(vib)   ...       0.00 
freq.    1613.60  E(vib)   ...       0.00 
freq.    1622.32  E(vib)   ...       0.00 
freq.    1636.82  E(vib)   ...       0.00 
freq.    1655.77  E(vib)   ...       0.00 
freq.    1661.89  E(vib)   ...       0.00 
freq.    1673.57  E(vib)   ...       0.00 
freq.    1712.30  E(vib)   ...       0.00 
freq.    2336.59  E(vib)   ...       0.00 
freq.    3159.38  E(vib)   ...       0.00 
freq.    3167.75  E(vib)   ...       0.00 
freq.    3170.71  E(vib)   ...       0.00 
freq.    3172.55  E(vib)   ...       0.00 
freq.    3172.97  E(vib)   ...       0.00 
freq.    3174.28  E(vib)   ...       0.00 
freq.    3177.31  E(vib)   ...       0.00 
freq.    3191.81  E(vib)   ...       0.00 
freq.    3192.44  E(vib)   ...       0.00 
freq.    3196.69  E(vib)   ...       0.00 
freq.    3213.56  E(vib)   ...       0.00 
freq.    3217.15  E(vib)   ...       0.00 
freq.    3572.21  E(vib)   ...       0.00 
freq.    3687.89  E(vib)   ...       0.00 

------------
INNER ENERGY
------------

The inner energy is: U= E(el) + E(ZPE) + E(vib) + E(rot) + E(trans)
    E(el)   - is the total energy from the electronic structure calculation
              = E(kin-el) + E(nuc-el) + E(el-el) + E(nuc-nuc)
    E(ZPE)  - the the zero temperature vibrational energy from the frequency calculation
    E(vib)  - the the finite temperature correction to E(ZPE) due to population
              of excited vibrational states
    E(rot)  - is the rotational thermal energy
    E(trans)- is the translational thermal energy

Summary of contributions to the inner energy U:
Electronic energy                ...   -916.94720656 Eh
Zero point energy                ...      0.28961526 Eh     181.74 kcal/mol
Thermal vibrational correction   ...      0.01537115 Eh       9.65 kcal/mol
Thermal rotational correction    ...      0.00141627 Eh       0.89 kcal/mol
Thermal translational correction ...      0.00141627 Eh       0.89 kcal/mol
-----------------------------------------------------------------------
Total thermal energy                   -916.63938760 Eh


Summary of corrections to the electronic energy:
(perhaps to be used in another calculation)
Total thermal correction                  0.01820370 Eh      11.42 kcal/mol
Non-thermal (ZPE) correction              0.28961526 Eh     181.74 kcal/mol
-----------------------------------------------------------------------
Total correction                          0.30781895 Eh     193.16 kcal/mol


--------
ENTHALPY
--------

The enthalpy is H = U + kB*T
                kB is Boltzmann's constant
Total free energy                 ...   -916.63938760 Eh 
Thermal Enthalpy correction       ...      0.00094421 Eh       0.59 kcal/mol
-----------------------------------------------------------------------
Total Enthalpy                    ...   -916.63844339 Eh


Note: Only C1 symmetry has been detected, increase convergence thresholds 
      if your molecule has a higher symmetry. Symmetry factor of 1.0 is   
      used for the rotational entropy correction. 
 

Note: Rotational entropy computed according to Herzberg 
Infrared and Raman Spectra, Chapter V,1, Van Nostrand Reinhold, 1945 
Point Group:  C1, Symmetry Number:   1  
Rotational constants in cm-1:     0.026173     0.003962     0.003446 

Vibrational entropy computed according to the QRRHO of S. Grimme
Chem.Eur.J. 2012 18 9955


-------
ENTROPY
-------

The entropy contributions are T*S = T*(S(el)+S(vib)+S(rot)+S(trans))
     S(el)   - electronic entropy
     S(vib)  - vibrational entropy
     S(rot)  - rotational entropy
     S(trans)- translational entropy
The entropies will be listed as multiplied by the temperature to get
units of energy

Electronic entropy                ...      0.00000000 Eh      0.00 kcal/mol
Vibrational entropy               ...      0.02643198 Eh     16.59 kcal/mol
Rotational entropy                ...      0.01651876 Eh     10.37 kcal/mol
Translational entropy             ...      0.02040028 Eh     12.80 kcal/mol
-----------------------------------------------------------------------
Final entropy term                ...      0.06335103 Eh     39.75 kcal/mol

In case the symmetry of your molecule has not been determined correctly
or in case you have a reason to use a different symmetry number we print 
out the resulting rotational entropy values for sn=1,12 :
 --------------------------------------------------------
|  sn= 1 | S(rot)=       0.01651876 Eh     10.37 kcal/mol|
|  sn= 2 | S(rot)=       0.01586431 Eh      9.95 kcal/mol|
|  sn= 3 | S(rot)=       0.01548148 Eh      9.71 kcal/mol|
|  sn= 4 | S(rot)=       0.01520985 Eh      9.54 kcal/mol|
|  sn= 5 | S(rot)=       0.01499916 Eh      9.41 kcal/mol|
|  sn= 6 | S(rot)=       0.01482702 Eh      9.30 kcal/mol|
|  sn= 7 | S(rot)=       0.01468147 Eh      9.21 kcal/mol|
|  sn= 8 | S(rot)=       0.01455540 Eh      9.13 kcal/mol|
|  sn= 9 | S(rot)=       0.01444419 Eh      9.06 kcal/mol|
|  sn=10 | S(rot)=       0.01434471 Eh      9.00 kcal/mol|
|  sn=11 | S(rot)=       0.01425472 Eh      8.94 kcal/mol|
|  sn=12 | S(rot)=       0.01417256 Eh      8.89 kcal/mol|
 --------------------------------------------------------


-------------------
GIBBS FREE ENERGY
-------------------

The Gibbs free energy is G = H - T*S

Total enthalpy                    ...   -916.63844339 Eh 
Total entropy correction          ...     -0.06335103 Eh    -39.75 kcal/mol
-----------------------------------------------------------------------
Final Gibbs free energy         ...   -916.70179442 Eh

For completeness - the Gibbs free energy minus the electronic energy
G-E(el)                           ...      0.24541214 Eh    154.00 kcal/mol


Timings for individual modules:

Sum of individual times         ...     3236.905 sec (=  53.948 min)
GTO integral calculation        ...       86.491 sec (=   1.442 min)   2.7 %
SCF iterations                  ...     1745.948 sec (=  29.099 min)  53.9 %
SCF Gradient evaluation         ...      259.263 sec (=   4.321 min)   8.0 %
Geometry relaxation             ...        6.497 sec (=   0.108 min)   0.2 %
Analytical frequency calculation...     1138.707 sec (=  18.978 min)  35.2 %
                             ****ORCA TERMINATED NORMALLY****
TOTAL RUN TIME: 0 days 0 hours 54 minutes 32 seconds 129 msec
