Start Job  on nano09

                                 *****************
                                 * O   R   C   A *
                                 *****************

                                            #,                                       
                                            ###                                      
                                            ####                                     
                                            #####                                    
                                            ######                                   
                                           ########,                                 
                                     ,,################,,,,,                         
                               ,,#################################,,                 
                          ,,##########################################,,             
                       ,#########################################, ''#####,          
                    ,#############################################,,   '####,        
                  ,##################################################,,,,####,       
                ,###########''''           ''''###############################       
              ,#####''   ,,,,##########,,,,          '''####'''          '####       
            ,##' ,,,,###########################,,,                        '##       
           ' ,,###''''                  '''############,,,                           
         ,,##''                                '''############,,,,        ,,,,,,###''
      ,#''                                            '''#######################'''  
     '                                                          ''''####''''         
             ,#######,   #######,   ,#######,      ##                                
            ,#'     '#,  ##    ##  ,#'     '#,    #''#        ######   ,####,        
            ##       ##  ##   ,#'  ##            #'  '#       #        #'  '#        
            ##       ##  #######   ##           ,######,      #####,   #    #        
            '#,     ,#'  ##    ##  '#,     ,#' ,#      #,         ##   #,  ,#        
             '#######'   ##     ##  '#######'  #'      '#     #####' # '####'        



                  #######################################################
                  #                        -***-                        #
                  #          Department of theory and spectroscopy      #
                  #    Directorship and core code : Frank Neese         #
                  #        Max Planck Institute fuer Kohlenforschung    #
                  #                Kaiser Wilhelm Platz 1               #
                  #                 D-45470 Muelheim/Ruhr               #
                  #                      Germany                        #
                  #                                                     #
                  #                  All rights reserved                #
                  #                        -***-                        #
                  #######################################################


                         Program Version 5.0.4 -  RELEASE  -


 With contributions from (in alphabetic order):
   Daniel Aravena         : Magnetic Suceptibility
   Michael Atanasov       : Ab Initio Ligand Field Theory (pilot matlab implementation)
   Alexander A. Auer      : GIAO ZORA, VPT2 properties, NMR spectrum
   Ute Becker             : Parallelization
   Giovanni Bistoni       : ED, misc. LED, open-shell LED, HFLD
   Martin Brehm           : Molecular dynamics
   Dmytro Bykov           : SCF Hessian
   Vijay G. Chilkuri      : MRCI spin determinant printing, contributions to CSF-ICE
   Dipayan Datta          : RHF DLPNO-CCSD density
   Achintya Kumar Dutta   : EOM-CC, STEOM-CC
   Dmitry Ganyushin       : Spin-Orbit,Spin-Spin,Magnetic field MRCI
   Miquel Garcia          : C-PCM and meta-GGA Hessian, CC/C-PCM, Gaussian charge scheme
   Yang Guo               : DLPNO-NEVPT2, F12-NEVPT2, CIM, IAO-localization
   Andreas Hansen         : Spin unrestricted coupled pair/coupled cluster methods
   Benjamin Helmich-Paris : MC-RPA, TRAH-SCF, COSX integrals
   Lee Huntington         : MR-EOM, pCC
   Robert Izsak           : Overlap fitted RIJCOSX, COSX-SCS-MP3, EOM
   Marcus Kettner         : VPT2
   Christian Kollmar      : KDIIS, OOCD, Brueckner-CCSD(T), CCSD density, CASPT2, CASPT2-K
   Simone Kossmann        : Meta GGA functionals, TD-DFT gradient, OOMP2, MP2 Hessian
   Martin Krupicka        : Initial AUTO-CI
   Lucas Lang             : DCDCAS
   Marvin Lechner         : AUTO-CI (C++ implementation), FIC-MRCC
   Dagmar Lenk            : GEPOL surface, SMD
   Dimitrios Liakos       : Extrapolation schemes; Compound Job, initial MDCI parallelization
   Dimitrios Manganas     : Further ROCIS development; embedding schemes
   Dimitrios Pantazis     : SARC Basis sets
   Anastasios Papadopoulos: AUTO-CI, single reference methods and gradients
   Taras Petrenko         : DFT Hessian,TD-DFT gradient, ASA, ECA, R-Raman, ABS, FL, XAS/XES, NRVS
   Peter Pinski           : DLPNO-MP2, DLPNO-MP2 Gradient
   Christoph Reimann      : Effective Core Potentials
   Marius Retegan         : Local ZFS, SOC
   Christoph Riplinger    : Optimizer, TS searches, QM/MM, DLPNO-CCSD(T), (RO)-DLPNO pert. Triples
   Tobias Risthaus        : Range-separated hybrids, TD-DFT gradient, RPA, STAB
   Michael Roemelt        : Original ROCIS implementation
   Masaaki Saitow         : Open-shell DLPNO-CCSD energy and density
   Barbara Sandhoefer     : DKH picture change effects
   Avijit Sen             : IP-ROCIS
   Kantharuban Sivalingam : CASSCF convergence, NEVPT2, FIC-MRCI
   Bernardo de Souza      : ESD, SOC TD-DFT
   Georgi Stoychev        : AutoAux, RI-MP2 NMR, DLPNO-MP2 response
   Willem Van den Heuvel  : Paramagnetic NMR
   Boris Wezisla          : Elementary symmetry handling
   Frank Wennmohs         : Technical directorship


 We gratefully acknowledge several colleagues who have allowed us to
 interface, adapt or use parts of their codes:
   Stefan Grimme, W. Hujo, H. Kruse, P. Pracht,  : VdW corrections, initial TS optimization,
                  C. Bannwarth, S. Ehlert          DFT functionals, gCP, sTDA/sTD-DF
   Ed Valeev, F. Pavosevic, A. Kumar             : LibInt (2-el integral package), F12 methods
   Garnet Chan, S. Sharma, J. Yang, R. Olivares  : DMRG
   Ulf Ekstrom                                   : XCFun DFT Library
   Mihaly Kallay                                 : mrcc  (arbitrary order and MRCC methods)
   Jiri Pittner, Ondrej Demel                    : Mk-CCSD
   Frank Weinhold                                : gennbo (NPA and NBO analysis)
   Christopher J. Cramer and Donald G. Truhlar   : smd solvation model
   Lars Goerigk                                  : TD-DFT with DH, B97 family of functionals
   V. Asgeirsson, H. Jonsson                     : NEB implementation
   FAccTs GmbH                                   : IRC, NEB, NEB-TS, DLPNO-Multilevel, CI-OPT
                                                   MM, QMMM, 2- and 3-layer-ONIOM, Crystal-QMMM,
                                                   LR-CPCM, SF, NACMEs, symmetry and pop. for TD-DFT,
                                                   nearIR, NL-DFT gradient (VV10), updates on ESD,
                                                   ML-optimized integration grids
   S Lehtola, MJT Oliveira, MAL Marques          : LibXC Library
   Liviu Ungur et al                             : ANISO software


 Your calculation uses the libint2 library for the computation of 2-el integrals
 For citations please refer to: http://libint.valeyev.net

 Your ORCA version has been built with support for libXC version: 5.1.0
 For citations please refer to: https://tddft.org/programs/libxc/

 This ORCA versions uses:
   CBLAS   interface :  Fast vector & matrix operations
   LAPACKE interface :  Fast linear algebra routines
   SCALAPACK package :  Parallel linear algebra routines
   Shared memory     :  Shared parallel matrices
   BLAS/LAPACK       :  OpenBLAS 0.3.15  USE64BITINT DYNAMIC_ARCH NO_AFFINITY Zen SINGLE_THREADED
        Core in use  :  Zen
   Copyright (c) 2011-2014, The OpenBLAS Project


================================================================================

----- Orbital basis set information -----
Your calculation utilizes the basis: def2-SVP
   F. Weigend and R. Ahlrichs, Phys. Chem. Chem. Phys. 7, 3297 (2005).

----- AuxJ basis set information -----
Your calculation utilizes the auxiliary basis: def2/J
   F. Weigend, Phys. Chem. Chem. Phys. 8, 1057 (2006).

================================================================================
                                        WARNINGS
                       Please study these warnings very carefully!
================================================================================


WARNING: Geometry Optimization
  ===> : Switching off AutoStart
         For restart on a previous wavefunction, please use MOREAD

INFO   : the flag for use of the SHARK integral package has been found!

================================================================================
                                       INPUT FILE
================================================================================
NAME = NC_NH2.inp
|  1> ! B3LYP def2-SVP Opt PAL8 FREQ 
|  2> #defgrid3 slowconv VeryTightSCF
|  3> *xyz 0 1
|  4>   C   -7.199556    2.891050   -0.273112
|  5>   C   -5.999033    3.503018   -0.275407
|  6>   C   -4.853203    2.821243   -0.179132
|  7>   C   -4.876439    1.486113   -0.076048
|  8>   C   -3.720107    0.816780    0.020158
|  9>   C   -3.718767   -0.516741    0.124185
| 10>   C   -4.857825   -1.237788    0.136850
| 11>   C   -4.861187   -2.595452    0.242589
| 12>   C   -6.060810   -3.208930    0.244307
| 13>   C   -7.206682   -2.527340    0.147367
| 14>   C   -7.183547   -1.192089    0.044378
| 15>   C   -8.339778   -0.522727   -0.051754
| 16>   C   -8.341093    0.810857   -0.155283
| 17>   C   -7.202559    1.532992   -0.167969
| 18>   C   -6.047694    0.823758   -0.069024
| 19>   C   -6.012747   -0.528911    0.037494
| 20>   C   -8.317983    3.650141   -0.373861
| 21>   C   -3.744232   -3.355674    0.345053
| 22>   C   -8.430896    4.987730   -0.481437
| 23>   C   -3.645064   -4.692242    0.453548
| 24>   C   -9.613115    5.559930   -0.570005
| 25>   N   -2.521339   -5.271980    0.542606
| 26>   N  -10.652609    6.064633   -0.647863
| 27>   H   -5.876895    4.593338   -0.355517
| 28>   H   -3.899686    3.377827   -0.186299
| 29>   H   -2.753181    1.350304    0.015491
| 30>   H   -2.712613   -0.952728    0.196564
| 31>   H   -6.180041   -4.299738    0.324725
| 32>   H   -8.159953   -3.084282    0.154197
| 33>   H   -9.306614   -1.056471   -0.047179
| 34>   H   -9.347856    1.245439   -0.227368
| 35>   H   -9.306638    3.167492   -0.373525
| 36>   H   -2.753315   -2.878451    0.346032
| 37>   H   -7.574500    5.675804   -0.502358
| 38>   H   -4.475498   -5.408952    0.477532
| 39>   H   -2.462929   -6.316841    0.626886
| 40>   H   -1.634205   -4.711112    0.533179
| 41> **                         ****END OF INPUT****
================================================================================

                       *****************************
                       * Geometry Optimization Run *
                       *****************************

Geometry optimization settings:
Update method            Update   .... BFGS
Choice of coordinates    CoordSys .... Z-matrix Internals
Initial Hessian          InHess   .... Almoef's Model

Convergence Tolerances:
Energy Change            TolE     ....  5.0000e-06 Eh
Max. Gradient            TolMAXG  ....  3.0000e-04 Eh/bohr
RMS Gradient             TolRMSG  ....  1.0000e-04 Eh/bohr
Max. Displacement        TolMAXD  ....  4.0000e-03 bohr
RMS Displacement         TolRMSD  ....  2.0000e-03 bohr
Strict Convergence                ....  False
------------------------------------------------------------------------------
                        ORCA OPTIMIZATION COORDINATE SETUP
------------------------------------------------------------------------------

The optimization will be done in new redundant internal coordinates
Making redundant internal coordinates   ...  (new redundants) done
Evaluating the initial hessian          ...  (Almloef) done
Evaluating the coordinates              ...  done
Calculating the B-matrix                .... done
Calculating the G-matrix                .... done
Diagonalizing the G-matrix              .... done
Small eigenvalue found = 5.387e-03
Small eigenvalue found = 1.112e-02
Small eigenvalue found = 1.640e-02
The first mode is                       ....   96
The number of degrees of freedom        ....  105

    -----------------------------------------------------------------
                    Redundant Internal Coordinates


    -----------------------------------------------------------------
         Definition                    Initial Value    Approx d2E/dq
    -----------------------------------------------------------------
      1. B(C   1,C   0)                  1.3475         0.730364   
      2. B(C   2,C   1)                  1.3368         0.759677   
      3. B(C   3,C   2)                  1.3393         0.752695   
      4. B(C   4,C   3)                  1.3395         0.752047   
      5. B(C   5,C   4)                  1.3376         0.757500   
      6. B(C   6,C   5)                  1.3482         0.728617   
      7. B(C   7,C   6)                  1.3618         0.693047   
      8. B(C   8,C   7)                  1.3474         0.730674   
      9. B(C   9,C   8)                  1.3368         0.759705   
     10. B(C  10,C   9)                  1.3394         0.752386   
     11. B(C  11,C  10)                  1.3395         0.752263   
     12. B(C  12,C  11)                  1.3376         0.757432   
     13. B(C  13,C  12)                  1.3483         0.728243   
     14. B(C  13,C   0)                  1.3621         0.692167   
     15. B(C  14,C   3)                  1.3456         0.735526   
     16. B(C  14,C  13)                  1.3589         0.700505   
     17. B(C  15,C  14)                  1.3573         0.704529   
     18. B(C  15,C  10)                  1.3456         0.735503   
     19. B(C  15,C   6)                  1.3588         0.700783   
     20. B(C  16,C   0)                  1.3555         0.709347   
     21. B(C  17,C   7)                  1.3550         0.710524   
     22. B(C  18,C  16)                  1.3467         0.732657   
     23. B(C  19,C  17)                  1.3446         0.738125   
     24. B(C  20,C  18)                  1.3164         0.818783   
     25. B(N  21,C  19)                  1.2676         0.877349   
     26. B(N  22,C  20)                  1.1582         1.311479   
     27. B(H  23,C   1)                  1.1001         0.347034   
     28. B(H  24,C   2)                  1.1041         0.341925   
     29. B(H  25,C   4)                  1.1044         0.341593   
     30. B(H  26,C   5)                  1.0989         0.348466   
     31. B(H  27,C   8)                  1.1002         0.346795   
     32. B(H  28,C   9)                  1.1041         0.341968   
     33. B(H  29,C  11)                  1.1044         0.341559   
     34. B(H  30,C  12)                  1.0989         0.348489   
     35. B(H  31,C  16)                  1.1002         0.346886   
     36. B(H  32,C  17)                  1.0998         0.347309   
     37. B(H  33,C  18)                  1.0988         0.348682   
     38. B(H  34,C  19)                  1.0972         0.350688   
     39. B(H  35,N  21)                  1.0499         0.373739   
     40. B(H  36,N  21)                  1.0496         0.374119   
     41. A(C  13,C   0,C  16)          124.2132         0.453719   
     42. A(C   1,C   0,C  16)          118.7290         0.458181   
     43. A(C   1,C   0,C  13)          117.0578         0.456137   
     44. A(C   0,C   1,H  23)          123.3101         0.360597   
     45. A(C   2,C   1,H  23)          114.5552         0.363026   
     46. A(C   0,C   1,C   2)          122.1347         0.463953   
     47. A(C   3,C   2,H  24)          121.1994         0.361538   
     48. A(C   1,C   2,C   3)          119.9399         0.466518   
     49. A(C   1,C   2,H  24)          118.8607         0.362108   
     50. A(C   2,C   3,C  14)          120.4118         0.463767   
     51. A(C   2,C   3,C   4)          119.2531         0.465656   
     52. A(C   4,C   3,C  14)          120.3351         0.463694   
     53. A(C   5,C   4,H  25)          118.7569         0.361871   
     54. A(C   3,C   4,H  25)          120.9376         0.361425   
     55. A(C   3,C   4,C   5)          120.3055         0.466199   
     56. A(C   4,C   5,H  26)          113.6765         0.363104   
     57. A(C   4,C   5,C   6)          122.2154         0.463507   
     58. A(C   6,C   5,H  26)          124.1081         0.360703   
     59. A(C   5,C   6,C   7)          122.4144         0.456044   
     60. A(C   7,C   6,C  15)          121.5816         0.452823   
     61. A(C   5,C   6,C  15)          116.0040         0.456967   
     62. A(C   8,C   7,C  17)          118.5792         0.458355   
     63. A(C   6,C   7,C   8)          117.1441         0.456278   
     64. A(C   6,C   7,C  17)          124.2767         0.453961   
     65. A(C   9,C   8,H  27)          114.7026         0.362986   
     66. A(C   7,C   8,H  27)          123.2285         0.360581   
     67. A(C   7,C   8,C   9)          122.0689         0.463992   
     68. A(C  10,C   9,H  28)          121.2161         0.361520   
     69. A(C   8,C   9,H  28)          118.8462         0.362118   
     70. A(C   8,C   9,C  10)          119.9377         0.466486   
     71. A(C  11,C  10,C  15)          120.2927         0.463716   
     72. A(C   9,C  10,C  15)          120.4470         0.463730   
     73. A(C   9,C  10,C  11)          119.2604         0.465646   
     74. A(C  10,C  11,H  29)          120.9227         0.361437   
     75. A(C  10,C  11,C  12)          120.3067         0.466216   
     76. A(C  12,C  11,H  29)          118.7706         0.361859   
     77. A(C  13,C  12,H  30)          124.1378         0.360675   
     78. A(C  11,C  12,H  30)          113.5940         0.363102   
     79. A(C  11,C  12,C  13)          122.2681         0.463455   
     80. A(C  12,C  13,C  14)          115.9399         0.456892   
     81. A(C   0,C  13,C  14)          121.6090         0.452685   
     82. A(C   0,C  13,C  12)          122.4511         0.455896   
     83. A(C  13,C  14,C  15)          123.2124         0.454145   
     84. A(C   3,C  14,C  15)          117.9408         0.458200   
     85. A(C   3,C  14,C  13)          118.8468         0.457721   
     86. A(C  10,C  15,C  14)          117.9802         0.458197   
     87. A(C   6,C  15,C  14)          123.1991         0.454178   
     88. A(C   6,C  15,C  10)          118.8207         0.457752   
     89. A(C  18,C  16,H  31)          111.1264         0.360763   
     90. A(C   0,C  16,H  31)          119.7214         0.358782   
     91. A(C   0,C  16,C  18)          129.1522         0.458443   
     92. A(C  19,C  17,H  32)          111.3941         0.361296   
     93. A(C   7,C  17,H  32)          119.9543         0.358957   
     94. A(C   7,C  17,C  19)          128.6516         0.459204   
     95. A(C  20,C  18,H  33)          115.2448         0.368012   
     96. A(C  16,C  18,H  33)          123.9298         0.361081   
     97. A(C  16,C  18,C  20)          120.8253         0.470637   
     98. A(N  21,C  19,H  34)          111.7573         0.370442   
     99. A(C  17,C  19,H  34)          126.5298         0.361893   
    100. A(C  17,C  19,N  21)          121.7129         0.474109   
    101. L(C  18,C  20,N  22,C  16, 2) 179.9862         0.520811   
    102. L(C  18,C  20,N  22,C  16, 1) 180.0702         0.520811   
    103. A(C  19,N  21,H  35)          120.6724         0.371200   
    104. A(H  35,N  21,H  36)          119.0455         0.289555   
    105. A(C  19,N  21,H  36)          120.2821         0.371265   
    106. D(C   2,C   1,C   0,C  13)     -0.0179         0.037852   
    107. D(H  23,C   1,C   0,C  16)     -0.0186         0.037852   
    108. D(C   2,C   1,C   0,C  16)    179.9757         0.037852   
    109. D(H  23,C   1,C   0,C  13)    179.9878         0.037852   
    110. D(C   3,C   2,C   1,H  23)    179.9895         0.041260   
    111. D(C   3,C   2,C   1,C   0)     -0.0053         0.041260   
    112. D(H  24,C   2,C   1,H  23)      0.0032         0.041260   
    113. D(H  24,C   2,C   1,C   0)   -179.9916         0.041260   
    114. D(C  14,C   3,C   2,H  24)   -179.9941         0.040432   
    115. D(C   4,C   3,C   2,C   1)   -179.9754         0.040432   
    116. D(C   4,C   3,C   2,H  24)      0.0106         0.040432   
    117. D(C  14,C   3,C   2,C   1)      0.0198         0.040432   
    118. D(H  25,C   4,C   3,C   2)      0.0010         0.040356   
    119. D(C   5,C   4,C   3,C   2)    179.9935         0.040356   
    120. D(C   5,C   4,C   3,C  14)     -0.0017         0.040356   
    121. D(H  25,C   4,C   3,C  14)   -179.9942         0.040356   
    122. D(H  26,C   5,C   4,H  25)     -0.0026         0.041001   
    123. D(C   6,C   5,C   4,C   3)      0.0098         0.041001   
    124. D(C   6,C   5,C   4,H  25)   -179.9976         0.041001   
    125. D(H  26,C   5,C   4,C   3)   -179.9952         0.041001   
    126. D(C  15,C   6,C   5,H  26)   -179.9981         0.037655   
    127. D(C  15,C   6,C   5,C   4)     -0.0036         0.037655   
    128. D(C   7,C   6,C   5,H  26)      0.0060         0.037655   
    129. D(C   7,C   6,C   5,C   4)   -179.9995         0.037655   
    130. D(C  17,C   7,C   6,C  15)   -179.9718         0.033772   
    131. D(C  17,C   7,C   6,C   5)      0.0239         0.033772   
    132. D(C   8,C   7,C   6,C  15)      0.0159         0.033772   
    133. D(C   8,C   7,C   6,C   5)   -179.9884         0.033772   
    134. D(H  27,C   8,C   7,C   6)    179.9964         0.037887   
    135. D(C   9,C   8,C   7,C  17)    179.9752         0.037887   
    136. D(C   9,C   8,C   7,C   6)     -0.0132         0.037887   
    137. D(H  27,C   8,C   7,C  17)     -0.0151         0.037887   
    138. D(H  28,C   9,C   8,H  27)     -0.0051         0.041263   
    139. D(H  28,C   9,C   8,C   7)   -179.9962         0.041263   
    140. D(C  10,C   9,C   8,H  27)    179.9927         0.041263   
    141. D(C  10,C   9,C   8,C   7)      0.0016         0.041263   
    142. D(C  15,C  10,C   9,H  28)   -179.9942         0.040396   
    143. D(C  15,C  10,C   9,C   8)      0.0080         0.040396   
    144. D(C  11,C  10,C   9,H  28)      0.0102         0.040396   
    145. D(C  11,C  10,C   9,C   8)   -179.9876         0.040396   
    146. D(H  29,C  11,C  10,C  15)    179.9982         0.040381   
    147. D(H  29,C  11,C  10,C   9)     -0.0061         0.040381   
    148. D(C  12,C  11,C  10,C  15)     -0.0086         0.040381   
    149. D(C  12,C  11,C  10,C   9)    179.9870         0.040381   
    150. D(H  30,C  12,C  11,H  29)     -0.0001         0.040993   
    151. D(H  30,C  12,C  11,C  10)   -179.9934         0.040993   
    152. D(C  13,C  12,C  11,H  29)   -179.9982         0.040993   
    153. D(C  13,C  12,C  11,C  10)      0.0085         0.040993   
    154. D(C  14,C  13,C  12,H  30)   -179.9953         0.037612   
    155. D(C   0,C  13,C  12,H  30)      0.0081         0.037612   
    156. D(C   0,C  13,C  12,C  11)   -179.9940         0.037612   
    157. D(C  14,C  13,C   0,C  16)   -179.9657         0.033679   
    158. D(C  14,C  13,C   0,C   1)      0.0275         0.033679   
    159. D(C  14,C  13,C  12,C  11)      0.0027         0.037612   
    160. D(C  12,C  13,C   0,C  16)      0.0308         0.033679   
    161. D(C  12,C  13,C   0,C   1)   -179.9760         0.033679   
    162. D(C   3,C  14,C  13,C  12)    179.9894         0.034565   
    163. D(C   3,C  14,C  13,C   0)     -0.0139         0.034565   
    164. D(C  15,C  14,C   3,C   4)     -0.0117         0.038439   
    165. D(C  15,C  14,C   3,C   2)    179.9931         0.038439   
    166. D(C  13,C  14,C   3,C   4)    179.9849         0.038439   
    167. D(C  15,C  14,C  13,C   0)    179.9825         0.034565   
    168. D(C  13,C  14,C   3,C   2)     -0.0103         0.038439   
    169. D(C  15,C  14,C  13,C  12)     -0.0142         0.034565   
    170. D(C  10,C  15,C  14,C  13)      0.0142         0.034997   
    171. D(C   6,C  15,C  14,C  13)   -179.9781         0.034997   
    172. D(C   6,C  15,C  14,C   3)      0.0184         0.034997   
    173. D(C  14,C  15,C  10,C  11)     -0.0023         0.038436   
    174. D(C  14,C  15,C  10,C   9)   -179.9979         0.038436   
    175. D(C   6,C  15,C  10,C  11)    179.9903         0.038436   
    176. D(C   6,C  15,C  10,C   9)     -0.0053         0.038436   
    177. D(C  14,C  15,C   6,C   7)    179.9852         0.034594   
    178. D(C  14,C  15,C   6,C   5)     -0.0107         0.034594   
    179. D(C  10,C  15,C  14,C   3)   -179.9894         0.034997   
    180. D(C  10,C  15,C   6,C   7)     -0.0069         0.034594   
    181. D(C  10,C  15,C   6,C   5)    179.9971         0.034594   
    182. D(H  31,C  16,C   0,C  13)     -0.0011         0.035519   
    183. D(H  31,C  16,C   0,C   1)   -179.9943         0.035519   
    184. D(C  18,C  16,C   0,C  13)    179.9822         0.035519   
    185. D(C  18,C  16,C   0,C   1)     -0.0109         0.035519   
    186. D(H  32,C  17,C   7,C   8)   -179.9946         0.035647   
    187. D(H  32,C  17,C   7,C   6)     -0.0071         0.035647   
    188. D(C  19,C  17,C   7,C   8)     -0.0113         0.035647   
    189. D(C  19,C  17,C   7,C   6)    179.9762         0.035647   
    190. D(H  33,C  18,C  16,H  31)    179.9855         0.038112   
    191. D(H  33,C  18,C  16,C   0)      0.0009         0.038112   
    192. D(C  20,C  18,C  16,H  31)     -0.0081         0.038112   
    193. D(C  20,C  18,C  16,C   0)   -179.9926         0.038112   
    194. D(H  34,C  19,C  17,H  32)   -180.0000         0.038737   
    195. D(H  34,C  19,C  17,C   7)      0.0155         0.038737   
    196. D(N  21,C  19,C  17,H  32)      0.0093         0.038737   
    197. D(N  21,C  19,C  17,C   7)   -179.9751         0.038737   
    198. D(H  36,N  21,C  19,H  34)   -179.9914         0.067213   
    199. D(H  36,N  21,C  19,C  17)      0.0005         0.067213   
    200. D(H  35,N  21,C  19,H  34)     -0.0050         0.067213   
    201. D(H  35,N  21,C  19,C  17)    179.9869         0.067213   
    -----------------------------------------------------------------

Number of atoms                         .... 37
Number of degrees of freedom            .... 201

         *************************************************************
         *                GEOMETRY OPTIMIZATION CYCLE   1            *
         *************************************************************
---------------------------------
CARTESIAN COORDINATES (ANGSTROEM)
---------------------------------
  C     -7.199556    2.891050   -0.273112
  C     -5.999033    3.503018   -0.275407
  C     -4.853203    2.821243   -0.179132
  C     -4.876439    1.486113   -0.076048
  C     -3.720107    0.816780    0.020158
  C     -3.718767   -0.516741    0.124185
  C     -4.857825   -1.237788    0.136850
  C     -4.861187   -2.595452    0.242589
  C     -6.060810   -3.208930    0.244307
  C     -7.206682   -2.527340    0.147367
  C     -7.183547   -1.192089    0.044378
  C     -8.339778   -0.522727   -0.051754
  C     -8.341093    0.810857   -0.155283
  C     -7.202559    1.532992   -0.167969
  C     -6.047694    0.823758   -0.069024
  C     -6.012747   -0.528911    0.037494
  C     -8.317983    3.650141   -0.373861
  C     -3.744232   -3.355674    0.345053
  C     -8.430896    4.987730   -0.481437
  C     -3.645064   -4.692242    0.453548
  C     -9.613115    5.559930   -0.570005
  N     -2.521339   -5.271980    0.542606
  N    -10.652609    6.064633   -0.647863
  H     -5.876895    4.593338   -0.355517
  H     -3.899686    3.377827   -0.186299
  H     -2.753181    1.350304    0.015491
  H     -2.712613   -0.952728    0.196564
  H     -6.180041   -4.299738    0.324725
  H     -8.159953   -3.084282    0.154197
  H     -9.306614   -1.056471   -0.047179
  H     -9.347856    1.245439   -0.227368
  H     -9.306638    3.167492   -0.373525
  H     -2.753315   -2.878451    0.346032
  H     -7.574500    5.675804   -0.502358
  H     -4.475498   -5.408952    0.477532
  H     -2.462929   -6.316841    0.626886
  H     -1.634205   -4.711112    0.533179

----------------------------
CARTESIAN COORDINATES (A.U.)
----------------------------
  NO LB      ZA    FRAG     MASS         X           Y           Z
   0 C     6.0000    0    12.011  -13.605189    5.463293   -0.516107
   1 C     6.0000    0    12.011  -11.336529    6.619745   -0.520444
   2 C     6.0000    0    12.011   -9.171225    5.331377   -0.338510
   3 C     6.0000    0    12.011   -9.215134    2.808347   -0.143710
   4 C     6.0000    0    12.011   -7.029983    1.543491    0.038093
   5 C     6.0000    0    12.011   -7.027451   -0.976499    0.234676
   6 C     6.0000    0    12.011   -9.179959   -2.339080    0.258609
   7 C     6.0000    0    12.011   -9.186312   -4.904693    0.458427
   8 C     6.0000    0    12.011  -11.453271   -6.063999    0.461673
   9 C     6.0000    0    12.011  -13.618655   -4.775980    0.278483
  10 C     6.0000    0    12.011  -13.574937   -2.252722    0.083862
  11 C     6.0000    0    12.011  -15.759896   -0.987811   -0.097801
  12 C     6.0000    0    12.011  -15.762381    1.532298   -0.293442
  13 C     6.0000    0    12.011  -13.610864    2.896935   -0.317415
  14 C     6.0000    0    12.011  -11.428485    1.556677   -0.130436
  15 C     6.0000    0    12.011  -11.362445   -0.999497    0.070853
  16 C     6.0000    0    12.011  -15.718710    6.897767   -0.706495
  17 C     6.0000    0    12.011   -7.075573   -6.341305    0.652056
  18 C     6.0000    0    12.011  -15.932085    9.425444   -0.909784
  19 C     6.0000    0    12.011   -6.888173   -8.867052    0.857082
  20 C     6.0000    0    12.011  -18.166155   10.506745   -1.077153
  21 N     7.0000    0    14.007   -4.764640   -9.962598    1.025377
  22 N     7.0000    0    14.007  -20.130514   11.460495   -1.224284
  23 H     1.0000    0     1.008  -11.105722    8.680151   -0.671830
  24 H     1.0000    0     1.008   -7.369339    6.383168   -0.352054
  25 H     1.0000    0     1.008   -5.202758    2.551705    0.029274
  26 H     1.0000    0     1.008   -5.126096   -1.800395    0.371452
  27 H     1.0000    0     1.008  -11.678585   -8.125327    0.613641
  28 H     1.0000    0     1.008  -15.420076   -5.828448    0.291390
  29 H     1.0000    0     1.008  -17.586952   -1.996441   -0.089155
  30 H     1.0000    0     1.008  -17.664888    2.353539   -0.429663
  31 H     1.0000    0     1.008  -17.586997    5.985692   -0.705860
  32 H     1.0000    0     1.008   -5.203011   -5.439484    0.653906
  33 H     1.0000    0     1.008  -14.313731   10.725715   -0.949319
  34 H     1.0000    0     1.008   -8.457466  -10.221438    0.902405
  35 H     1.0000    0     1.008   -4.654261  -11.937100    1.184643
  36 H     1.0000    0     1.008   -3.088200   -8.902711    1.007562

--------------------------------
INTERNAL COORDINATES (ANGSTROEM)
--------------------------------
 C      0   0   0     0.000000000000     0.00000000     0.00000000
 C      1   0   0     1.347503459579     0.00000000     0.00000000
 C      2   1   0     1.336791836880   122.13472949     0.00000000
 C      3   2   1     1.339305170472   119.93986081     0.00000000
 C      4   3   2     1.339539455764   119.25305145   180.02461436
 C      5   4   3     1.337573052125   120.30551468   179.99350614
 C      6   5   4     1.348155149008   122.21540156     0.00000000
 C      7   6   5     1.361779562213   122.41438441   180.00046407
 C      8   7   6     1.347387676260   117.14411846   180.01156126
 C      9   8   7     1.336781557355   122.06891049     0.00000000
 C     10   9   8     1.339416736997   119.93771935     0.00000000
 C     11  10   9     1.339461449176   119.26037629   180.01239445
 C     12  11  10     1.337597199504   120.30672068   179.98704619
 C     13  12  11     1.348295057462   122.26814826     0.00000000
 C      4   3   2     1.345586027583   120.41181324     0.00000000
 C     11  10   9     1.345594697203   120.44695924     0.00000000
 C      1   2   3     1.355451386665   118.72898286   179.97570554
 C      8   7   6     1.354999938231   124.27672483     0.02387224
 C     17   1   2     1.346650019220   129.15222101     0.00000000
 C     18   8   7     1.344626147252   128.65162626   179.97624018
 C     19  17   1     1.316396176911   120.82532515   180.00738235
 N     20  18   8     1.267590372176   121.71291325   180.02487505
 N     21  19  17     1.158160076332   179.92945528   174.39537739
 H      2   1   3     1.100060455404   123.31010032   180.00567274
 H      3   2   1     1.104097724042   118.86068780   180.00837156
 H      5   4   3     1.104362046134   120.93760344     0.00000000
 H      6   5   4     1.098940060024   113.67647545   180.00476215
 H      9   8   7     1.100247780706   123.22847435   179.99643924
 H     10   9   8     1.104063693681   118.84617009   180.00377034
 H     12  11  10     1.104389170110   120.92271864     0.00000000
 H     13  12  11     1.098921971806   113.59401754   180.00659998
 H     17   1   2     1.100176749037   119.72142092   180.00574848
 H     18   8   7     1.099845103212   119.95426564     0.00000000
 H     19  17   1     1.098770961817   123.92983850     0.00000000
 H     20  18   8     1.097209681288   126.52983119     0.00000000
 H     22  20  18     1.049880638845   120.67237547   179.98691955
 H     22  20  18     1.049603980418   120.28208566     0.00000000

---------------------------
INTERNAL COORDINATES (A.U.)
---------------------------
 C      0   0   0     0.000000000000     0.00000000     0.00000000
 C      1   0   0     2.546412503116     0.00000000     0.00000000
 C      2   1   0     2.526170469765   122.13472949     0.00000000
 C      3   2   1     2.530919981936   119.93986081     0.00000000
 C      4   3   2     2.531362716976   119.25305145   180.02461436
 C      5   4   3     2.527646752629   120.30551468   179.99350614
 C      6   5   4     2.547644017662   122.21540156     0.00000000
 C      7   6   5     2.573390427354   122.41438441   180.00046407
 C      8   7   6     2.546193704352   117.14411846   180.01156126
 C      9   8   7     2.526151044277   122.06891049     0.00000000
 C     10   9   8     2.531130812114   119.93771935     0.00000000
 C     11  10   9     2.531215305888   119.26037629   180.01239445
 C     12  11  10     2.527692384563   120.30672068   179.98704619
 C     13  12  11     2.547908406323   122.26814826     0.00000000
 C      4   3   2     2.542789081762   120.41181324     0.00000000
 C     11  10   9     2.542805464970   120.44695924     0.00000000
 C      1   2   3     2.561431908640   118.72898286   179.97570554
 C      8   7   6     2.560578794736   124.27672483     0.02387224
 C     17   1   2     2.544799734566   129.15222101     0.00000000
 C     18   8   7     2.540975170815   128.65162626   179.97624018
 C     19  17   1     2.487628258102   120.82532515   180.00738235
 N     20  18   8     2.395398653408   121.71291325   180.02487505
 N     21  19  17     2.188605363509   179.92945528   174.39537739
 H      2   1   3     2.078812991471   123.31010032   180.00567274
 H      3   2   1     2.086442323525   118.86068780   180.00837156
 H      5   4   3     2.086941819890   120.93760344     0.00000000
 H      6   5   4     2.076695751041   113.67647545   180.00476215
 H      9   8   7     2.079166984989   123.22847435   179.99643924
 H     10   9   8     2.086378015463   118.84617009   180.00377034
 H     12  11  10     2.086993076777   120.92271864     0.00000000
 H     13  12  11     2.076661569262   113.59401754   180.00659998
 H     17   1   2     2.079032754588   119.72142092   180.00574848
 H     18   8   7     2.078406034805   119.95426564     0.00000000
 H     19  17   1     2.076376201740   123.92983850     0.00000000
 H     20  18   8     2.073425809121   126.52983119     0.00000000
 H     22  20  18     1.983986880723   120.67237547   179.98691955
 H     22  20  18     1.983464072063   120.28208566     0.00000000

---------------------
BASIS SET INFORMATION
---------------------
There are 3 groups of distinct atoms

 Group   1 Type C   : 7s4p1d contracted to 3s2p1d pattern {511/31/1}
 Group   2 Type N   : 7s4p1d contracted to 3s2p1d pattern {511/31/1}
 Group   3 Type H   : 4s1p contracted to 2s1p pattern {31/1}

Atom   0C    basis set group =>   1
Atom   1C    basis set group =>   1
Atom   2C    basis set group =>   1
Atom   3C    basis set group =>   1
Atom   4C    basis set group =>   1
Atom   5C    basis set group =>   1
Atom   6C    basis set group =>   1
Atom   7C    basis set group =>   1
Atom   8C    basis set group =>   1
Atom   9C    basis set group =>   1
Atom  10C    basis set group =>   1
Atom  11C    basis set group =>   1
Atom  12C    basis set group =>   1
Atom  13C    basis set group =>   1
Atom  14C    basis set group =>   1
Atom  15C    basis set group =>   1
Atom  16C    basis set group =>   1
Atom  17C    basis set group =>   1
Atom  18C    basis set group =>   1
Atom  19C    basis set group =>   1
Atom  20C    basis set group =>   1
Atom  21N    basis set group =>   2
Atom  22N    basis set group =>   2
Atom  23H    basis set group =>   3
Atom  24H    basis set group =>   3
Atom  25H    basis set group =>   3
Atom  26H    basis set group =>   3
Atom  27H    basis set group =>   3
Atom  28H    basis set group =>   3
Atom  29H    basis set group =>   3
Atom  30H    basis set group =>   3
Atom  31H    basis set group =>   3
Atom  32H    basis set group =>   3
Atom  33H    basis set group =>   3
Atom  34H    basis set group =>   3
Atom  35H    basis set group =>   3
Atom  36H    basis set group =>   3
---------------------------------
AUXILIARY/J BASIS SET INFORMATION
---------------------------------
There are 3 groups of distinct atoms

 Group   1 Type C   : 12s5p4d2f1g contracted to 6s4p3d1f1g pattern {711111/2111/211/2/1}
 Group   2 Type N   : 12s5p4d2f1g contracted to 6s4p3d1f1g pattern {711111/2111/211/2/1}
 Group   3 Type H   : 5s2p1d contracted to 3s1p1d pattern {311/2/1}

Atom   0C    basis set group =>   1
Atom   1C    basis set group =>   1
Atom   2C    basis set group =>   1
Atom   3C    basis set group =>   1
Atom   4C    basis set group =>   1
Atom   5C    basis set group =>   1
Atom   6C    basis set group =>   1
Atom   7C    basis set group =>   1
Atom   8C    basis set group =>   1
Atom   9C    basis set group =>   1
Atom  10C    basis set group =>   1
Atom  11C    basis set group =>   1
Atom  12C    basis set group =>   1
Atom  13C    basis set group =>   1
Atom  14C    basis set group =>   1
Atom  15C    basis set group =>   1
Atom  16C    basis set group =>   1
Atom  17C    basis set group =>   1
Atom  18C    basis set group =>   1
Atom  19C    basis set group =>   1
Atom  20C    basis set group =>   1
Atom  21N    basis set group =>   2
Atom  22N    basis set group =>   2
Atom  23H    basis set group =>   3
Atom  24H    basis set group =>   3
Atom  25H    basis set group =>   3
Atom  26H    basis set group =>   3
Atom  27H    basis set group =>   3
Atom  28H    basis set group =>   3
Atom  29H    basis set group =>   3
Atom  30H    basis set group =>   3
Atom  31H    basis set group =>   3
Atom  32H    basis set group =>   3
Atom  33H    basis set group =>   3
Atom  34H    basis set group =>   3
Atom  35H    basis set group =>   3
Atom  36H    basis set group =>   3


           ************************************************************
           *        Program running with 8 parallel MPI-processes     *
           *              working on a common directory               *
           ************************************************************
------------------------------------------------------------------------------
                           ORCA GTO INTEGRAL CALCULATION
                           -- RI-GTO INTEGRALS CHOSEN --
------------------------------------------------------------------------------
------------------------------------------------------------------------------
                   ___                                                        
                  /   \      - P O W E R E D   B Y -                         
                 /     \                                                     
                 |  |  |   _    _      __       _____    __    __             
                 |  |  |  | |  | |    /  \     |  _  \  |  |  /  |          
                  \  \/   | |  | |   /    \    | | | |  |  | /  /          
                 / \  \   | |__| |  /  /\  \   | |_| |  |  |/  /          
                |  |  |   |  __  | /  /__\  \  |    /   |      \           
                |  |  |   | |  | | |   __   |  |    \   |  |\   \          
                \     /   | |  | | |  |  |  |  | |\  \  |  | \   \       
                 \___/    |_|  |_| |__|  |__|  |_| \__\ |__|  \__/        
                                                                              
                      - O R C A' S   B I G   F R I E N D -                    
                                      &                                       
                       - I N T E G R A L  F E E D E R -                       
                                                                              
 v1 FN, 2020, v2 2021                                                         
------------------------------------------------------------------------------


Reading SHARK input file NC_NH2.SHARKINP.tmp ... ok
----------------------
SHARK INTEGRAL PACKAGE
----------------------

Number of atoms                             ...     37
Number of basis functions                   ...    392
Number of shells                            ...    180
Maximum angular momentum                    ...      2
Integral batch strategy                     ... SHARK/LIBINT Hybrid
RI-J (if used) integral strategy            ... SPLIT-RIJ (Revised 2003 algorithm where possible)
Printlevel                                  ...      1
Contraction scheme used                     ... SEGMENTED contraction
Coulomb Range Separation                    ... NOT USED
Exchange Range Separation                   ... NOT USED
Finite Nucleus Model                        ... NOT USED
Auxiliary Coulomb fitting basis             ... AVAILABLE
   # of basis functions in Aux-J            ...   1281
   # of shells in Aux-J                     ...    415
   Maximum angular momentum in Aux-J        ...      4
Auxiliary J/K fitting basis                 ... NOT available
Auxiliary Correlation fitting basis         ... NOT available
Auxiliary 'external' fitting basis          ... NOT available
Integral threshold                          ...     2.500000e-11
Primitive cut-off                           ...     2.500000e-12
Primitive pair pre-selection threshold      ...     2.500000e-12

Calculating pre-screening integrals         ... done (  0.0 sec) Dimension = 180
Organizing shell pair data                  ... done (  2.4 sec)
Shell pair information
Total number of shell pairs                 ...     16290
Shell pairs after pre-screening             ...     11695
Total number of primitive shell pairs       ...     60372
Primitive shell pairs kept                  ...     27986
          la=0 lb=0:   3452 shell pairs
          la=1 lb=0:   4280 shell pairs
          la=1 lb=1:   1378 shell pairs
          la=2 lb=0:   1469 shell pairs
          la=2 lb=1:    944 shell pairs
          la=2 lb=2:    172 shell pairs

Calculating one electron integrals          ... done (  0.0 sec)
Calculating RI/J V-Matrix + Cholesky decomp.... done (  2.0 sec)
Calculating Nuclear repulsion               ... done (  0.0 sec) ENN=   1699.831458508750 Eh

SHARK setup successfully completed in   8.8 seconds

Maximum memory used throughout the entire GTOINT-calculation: 21.4 MB


           ************************************************************
           *        Program running with 8 parallel MPI-processes     *
           *              working on a common directory               *
           ************************************************************
-------------------------------------------------------------------------------
                                 ORCA SCF
-------------------------------------------------------------------------------

------------
SCF SETTINGS
------------
Hamiltonian:
 Density Functional     Method          .... DFT(GTOs)
 Exchange Functional    Exchange        .... B88
   X-Alpha parameter    XAlpha          ....  0.666667
   Becke's b parameter  XBeta           ....  0.004200
 Correlation Functional Correlation     .... LYP
 LDA part of GGA corr.  LDAOpt          .... VWN-5
 Gradients option       PostSCFGGA      .... off
 Hybrid DFT is turned on
   Fraction HF Exchange ScalHFX         ....  0.200000
   Scaling of DF-GGA-X  ScalDFX         ....  0.720000
   Scaling of DF-GGA-C  ScalDFC         ....  0.810000
   Scaling of DF-LDA-C  ScalLDAC        ....  1.000000
   Perturbative correction              ....  0.000000
   Density functional embedding theory  .... OFF
   NL short-range parameter             ....  4.800000
 RI-approximation to the Coulomb term is turned on
   Number of AuxJ basis functions       .... 1281
   RIJ-COSX (HFX calculated with COS-X)).... on


General Settings:
 Integral files         IntName         .... NC_NH2
 Hartree-Fock type      HFTyp           .... RHF
 Total Charge           Charge          ....    0
 Multiplicity           Mult            ....    1
 Number of Electrons    NEL             ....  154
 Basis Dimension        Dim             ....  392
 Nuclear Repulsion      ENuc            ....   1699.8314585088 Eh

Convergence Acceleration:
 DIIS                   CNVDIIS         .... on
   Start iteration      DIISMaxIt       ....    12
   Startup error        DIISStart       ....  0.200000
   # of expansion vecs  DIISMaxEq       ....     5
   Bias factor          DIISBfac        ....   1.050
   Max. coefficient     DIISMaxC        ....  10.000
 Trust-Rad. Augm. Hess. CNVTRAH         .... auto
   Auto Start mean grad. ratio tolernc. ....  1.125000
   Auto Start start iteration           ....    20
   Auto Start num. interpolation iter.  ....    10
   Max. Number of Micro iterations      ....    16
   Max. Number of Macro iterations      .... Maxiter - #DIIS iter
   Number of Davidson start vectors     ....     2
   Converg. threshold I  (grad. norm)   ....   1.000e-05
   Converg. threshold II (energy diff.) ....   1.000e-08
   Grad. Scal. Fac. for Micro threshold ....   0.100
   Minimum threshold for Micro iter.    ....   0.010
   NR start threshold (gradient norm)   ....   0.001
   Initial trust radius                 ....   0.400
   Minimum AH scaling param. (alpha)    ....   1.000
   Maximum AH scaling param. (alpha)    .... 1000.000
   Orbital update algorithm             .... Taylor
   White noise on init. David. guess    .... on
   Maximum white noise                  ....   0.010
   Quad. conv. algorithm                .... NR
 SOSCF                  CNVSOSCF        .... on
   Start iteration      SOSCFMaxIt      ....   150
   Startup grad/error   SOSCFStart      ....  0.003300
 Level Shifting         CNVShift        .... on
   Level shift para.    LevelShift      ....    0.2500
   Turn off err/grad.   ShiftErr        ....    0.0010
 Zerner damping         CNVZerner       .... off
 Static damping         CNVDamp         .... on
   Fraction old density DampFac         ....    0.7000
   Max. Damping (<1)    DampMax         ....    0.9800
   Min. Damping (>=0)   DampMin         ....    0.0000
   Turn off err/grad.   DampErr         ....    0.1000
 Fernandez-Rico         CNVRico         .... off

SCF Procedure:
 Maximum # iterations   MaxIter         ....   125
 SCF integral mode      SCFMode         .... Direct
   Integral package                     .... SHARK and LIBINT hybrid scheme
 Reset frequency        DirectResetFreq ....    20
 Integral Threshold     Thresh          ....  2.500e-11 Eh
 Primitive CutOff       TCut            ....  2.500e-12 Eh

Convergence Tolerance:
 Convergence Check Mode ConvCheckMode   .... Total+1el-Energy
 Convergence forced     ConvForced      .... 0
 Energy Change          TolE            ....  1.000e-08 Eh
 1-El. energy change                    ....  1.000e-05 Eh
 Orbital Gradient       TolG            ....  1.000e-05
 Orbital Rotation angle TolX            ....  1.000e-05
 DIIS Error             TolErr          ....  5.000e-07


Diagonalization of the overlap matrix:
Smallest eigenvalue                        ... 1.179e-04
Time for diagonalization                   ...    0.035 sec
Threshold for overlap eigenvalues          ... 1.000e-08
Number of eigenvalues below threshold      ... 0
Time for construction of square roots      ...    0.025 sec
Total time needed                          ...    0.084 sec

Time for model grid setup =    0.352 sec

------------------------------
INITIAL GUESS: MODEL POTENTIAL
------------------------------
Loading Hartree-Fock densities                     ... done
Calculating cut-offs                               ... done
Initializing the effective Hamiltonian             ... done
Setting up the integral package (SHARK)            ... done
Starting the Coulomb interaction                   ... done (   0.2 sec)
Reading the grid                                   ... done
Mapping shells                                     ... done
Starting the XC term evaluation                    ... done (   0.1 sec)
  promolecular density results
     # of electrons  =    153.989400242
     EX              =   -125.812018436
     EC              =     -5.261446290
     EX+EC           =   -131.073464726
Transforming the Hamiltonian                       ... done (   0.0 sec)
Diagonalizing the Hamiltonian                      ... done (   0.0 sec)
Back transforming the eigenvectors                 ... done (   0.0 sec)
Now organizing SCF variables                       ... done
                      ------------------
                      INITIAL GUESS DONE (   0.7 sec)
                      ------------------
-------------------
DFT GRID GENERATION
-------------------

General Integration Accuracy     IntAcc      ... 4.388
Radial Grid Type                 RadialGrid  ... OptM3 with GC (2021)
Angular Grid (max. ang.)         AngularGrid ... 4 (Lebedev-302)
Angular grid pruning method      GridPruning ... 4 (adaptive)
Weight generation scheme         WeightScheme... Becke
Basis function cutoff            BFCut       ... 1.0000e-11
Integration weight cutoff        WCut        ... 1.0000e-14
Angular grids for H and He will be reduced by one unit
Partially contracted basis set               ... off
Rotationally invariant grid construction     ... off

Total number of grid points                  ...   181204
Total number of batches                      ...     2848
Average number of points per batch           ...       63
Average number of grid points per atom       ...     4897
Time for grid setup =    2.705 sec

--------------------
COSX GRID GENERATION
--------------------

GRIDX 1
-------
General Integration Accuracy     IntAcc      ... 3.816
Radial Grid Type                 RadialGrid  ... OptM3 with GC (2021)
Angular Grid (max. ang.)         AngularGrid ... 1 (Lebedev-50)
Angular grid pruning method      GridPruning ... 4 (adaptive)
Weight generation scheme         WeightScheme... Becke
Basis function cutoff            BFCut       ... 1.0000e-11
Integration weight cutoff        WCut        ... 1.0000e-14
Angular grids for H and He will be reduced by one unit
Partially contracted basis set               ... on
Rotationally invariant grid construction     ... off

Total number of grid points                  ...    23072
Total number of batches                      ...      378
Average number of points per batch           ...       61
Average number of grid points per atom       ...      624
UseSFitting                                  ... on

GRIDX 2
-------
General Integration Accuracy     IntAcc      ... 4.020
Radial Grid Type                 RadialGrid  ... OptM3 with GC (2021)
Angular Grid (max. ang.)         AngularGrid ... 2 (Lebedev-110)
Angular grid pruning method      GridPruning ... 4 (adaptive)
Weight generation scheme         WeightScheme... Becke
Basis function cutoff            BFCut       ... 1.0000e-11
Integration weight cutoff        WCut        ... 1.0000e-14
Angular grids for H and He will be reduced by one unit
Partially contracted basis set               ... on
Rotationally invariant grid construction     ... off

Total number of grid points                  ...    50459
Total number of batches                      ...      814
Average number of points per batch           ...       61
Average number of grid points per atom       ...     1364
UseSFitting                                  ... on

GRIDX 3
-------
General Integration Accuracy     IntAcc      ... 4.338
Radial Grid Type                 RadialGrid  ... OptM3 with GC (2021)
Angular Grid (max. ang.)         AngularGrid ... 3 (Lebedev-194)
Angular grid pruning method      GridPruning ... 4 (adaptive)
Weight generation scheme         WeightScheme... Becke
Basis function cutoff            BFCut       ... 1.0000e-11
Integration weight cutoff        WCut        ... 1.0000e-14
Angular grids for H and He will be reduced by one unit
Partially contracted basis set               ... on
Rotationally invariant grid construction     ... off

Total number of grid points                  ...   110691
Total number of batches                      ...     1746
Average number of points per batch           ...       63
Average number of grid points per atom       ...     2992
UseSFitting                                  ... on

Time for X-Grid setup             =    3.737 sec

--------------
SCF ITERATIONS
--------------
ITER       Energy         Delta-E        Max-DP      RMS-DP      [F,P]     Damp
               ***  Starting incremental Fock matrix formation  ***
  0   -916.2196470630   0.000000000000 0.19857776  0.00370731  0.2061983 0.7000
  1   -916.4763046003  -0.256657537280 0.12026510  0.00247113  0.0991253 0.7000
                               ***Turning on DIIS***
  2   -916.5898856174  -0.113581017099 0.22229783  0.00485736  0.0430829 0.0000
  3   -916.7574532804  -0.167567663024 0.03704379  0.00112223  0.0503371 0.0000
  4   -916.7962621149  -0.038808834507 0.02017250  0.00032640  0.0235077 0.0000
  5   -916.7989285727  -0.002666457813 0.00869187  0.00014575  0.0111384 0.0000
                      *** Initiating the SOSCF procedure ***
                           *** Shutting down DIIS ***
                      *** Re-Reading the Fockian *** 
                      *** Removing any level shift *** 
ITER      Energy       Delta-E        Grad      Rot      Max-DP    RMS-DP
  6   -916.79922431  -0.0002957323  0.000667  0.000667  0.002428  0.000050
               *** Restarting incremental Fock matrix formation ***
  7   -916.79912335   0.0001009536  0.000411  0.002937  0.002606  0.000052
  8   -916.79913309  -0.0000097350  0.000350  0.002895  0.001056  0.000033
  9   -916.79913523  -0.0000021439  0.000322  0.002011  0.000671  0.000023
 10   -916.79913793  -0.0000026960  0.000111  0.000648  0.000320  0.000011
 11   -916.79913770   0.0000002272  0.000133  0.000619  0.000282  0.000009
 12   -916.79913856  -0.0000008635  0.000047  0.000289  0.000175  0.000004
 13   -916.79913849   0.0000000680  0.000066  0.000188  0.000114  0.000002
 14   -916.79913866  -0.0000001606  0.000015  0.000039  0.000056  0.000001
 15   -916.79913865   0.0000000020  0.000019  0.000038  0.000034  0.000001
 16   -916.79913865   0.0000000022  0.000003  0.000017  0.000034  0.000001
 17   -916.79913863   0.0000000195  0.000004  0.000011  0.000014  0.000000
                  ***Gradient check signals convergence***
              ***Rediagonalizing the Fockian in SOSCF/NRSCF***

               *****************************************************
               *                     SUCCESS                       *
               *           SCF CONVERGED AFTER  18 CYCLES          *
               *****************************************************

Old exchange energy                            =    -25.552758369 Eh
New exchange energy                            =    -25.552778773 Eh
Exchange energy change after final integration =     -0.000020403 Eh
Total energy after final integration           =   -916.799159055 Eh
Final COS-X integration done in                =     9.528 sec

----------------
TOTAL SCF ENERGY
----------------

Total Energy       :         -916.79915905 Eh          -24947.37342 eV

Components:
Nuclear Repulsion  :         1699.83145851 Eh           46254.76553 eV
Electronic Energy  :        -2616.63061756 Eh          -71202.13895 eV
One Electron Energy:        -4615.53960689 Eh         -125595.21784 eV
Two Electron Energy:         1998.90898933 Eh           54393.07889 eV
Max COSX asymmetry :            0.00000358 Eh               0.00010 eV

Virial components:
Potential Energy   :        -1828.38433181 Eh          -49752.86706 eV
Kinetic Energy     :          911.58517276 Eh           24805.49364 eV
Virial Ratio       :            2.00571969


DFT components:
N(Alpha)           :       77.000119791438 electrons
N(Beta)            :       77.000119791438 electrons
N(Total)           :      154.000239582877 electrons
E(X)               :     -101.456660470434 Eh       
E(C)               :       -6.196932942194 Eh       
E(XC)              :     -107.653593412628 Eh       
DFET-embed. en.    :        0.000000000000 Eh       

---------------
SCF CONVERGENCE
---------------

  Last Energy change         ...   -1.9881e-08  Tolerance :   1.0000e-08
  Last MAX-Density change    ...    4.4409e-15  Tolerance :   1.0000e-07
  Last RMS-Density change    ...    4.8068e-17  Tolerance :   5.0000e-09
  Last Orbital Gradient      ...    4.9269e-07  Tolerance :   1.0000e-05
  Last Orbital Rotation      ...    2.7354e-06  Tolerance :   1.0000e-05

             **** THE GBW FILE WAS UPDATED (NC_NH2.gbw) ****
             **** DENSITY NC_NH2.scfp WAS UPDATED ****
             **** ENERGY FILE WAS UPDATED (NC_NH2.en.tmp) ****
             **** THE GBW FILE WAS UPDATED (NC_NH2.gbw) ****
             **** DENSITY NC_NH2.scfp WAS UPDATED ****
----------------
ORBITAL ENERGIES
----------------

  NO   OCC          E(Eh)            E(eV) 
   0   2.0000     -14.378172      -391.2500 
   1   2.0000     -14.290876      -388.8745 
   2   2.0000     -10.239611      -278.6340 
   3   2.0000     -10.195144      -277.4240 
   4   2.0000     -10.191040      -277.3123 
   5   2.0000     -10.188689      -277.2483 
   6   2.0000     -10.181085      -277.0414 
   7   2.0000     -10.177709      -276.9495 
   8   2.0000     -10.176711      -276.9224 
   9   2.0000     -10.175351      -276.8854 
  10   2.0000     -10.174052      -276.8500 
  11   2.0000     -10.172781      -276.8154 
  12   2.0000     -10.172634      -276.8115 
  13   2.0000     -10.171381      -276.7773 
  14   2.0000     -10.171151      -276.7711 
  15   2.0000     -10.170381      -276.7501 
  16   2.0000     -10.170112      -276.7428 
  17   2.0000     -10.169703      -276.7317 
  18   2.0000     -10.169290      -276.7205 
  19   2.0000     -10.169024      -276.7132 
  20   2.0000     -10.167332      -276.6672 
  21   2.0000     -10.165219      -276.6097 
  22   2.0000     -10.160407      -276.4787 
  23   2.0000      -0.965117       -26.2622 
  24   2.0000      -0.927051       -25.2263 
  25   2.0000      -0.885425       -24.0936 
  26   2.0000      -0.871737       -23.7212 
  27   2.0000      -0.855019       -23.2663 
  28   2.0000      -0.836421       -22.7602 
  29   2.0000      -0.799524       -21.7561 
  30   2.0000      -0.790450       -21.5092 
  31   2.0000      -0.758892       -20.6505 
  32   2.0000      -0.749522       -20.3955 
  33   2.0000      -0.733630       -19.9631 
  34   2.0000      -0.709603       -19.3093 
  35   2.0000      -0.666185       -18.1278 
  36   2.0000      -0.650792       -17.7090 
  37   2.0000      -0.641746       -17.4628 
  38   2.0000      -0.628540       -17.1035 
  39   2.0000      -0.613967       -16.7069 
  40   2.0000      -0.596297       -16.2261 
  41   2.0000      -0.568445       -15.4682 
  42   2.0000      -0.555041       -15.1034 
  43   2.0000      -0.537975       -14.6390 
  44   2.0000      -0.530405       -14.4331 
  45   2.0000      -0.516840       -14.0639 
  46   2.0000      -0.505276       -13.7493 
  47   2.0000      -0.493710       -13.4345 
  48   2.0000      -0.474462       -12.9108 
  49   2.0000      -0.468900       -12.7594 
  50   2.0000      -0.454169       -12.3586 
  51   2.0000      -0.447318       -12.1721 
  52   2.0000      -0.445952       -12.1350 
  53   2.0000      -0.434448       -11.8219 
  54   2.0000      -0.429587       -11.6896 
  55   2.0000      -0.413574       -11.2539 
  56   2.0000      -0.411907       -11.2086 
  57   2.0000      -0.402513       -10.9529 
  58   2.0000      -0.395738       -10.7686 
  59   2.0000      -0.394010       -10.7216 
  60   2.0000      -0.385931       -10.5017 
  61   2.0000      -0.380299       -10.3484 
  62   2.0000      -0.370398       -10.0790 
  63   2.0000      -0.370150       -10.0723 
  64   2.0000      -0.361333        -9.8324 
  65   2.0000      -0.350296        -9.5320 
  66   2.0000      -0.330214        -8.9856 
  67   2.0000      -0.329846        -8.9756 
  68   2.0000      -0.327897        -8.9225 
  69   2.0000      -0.318301        -8.6614 
  70   2.0000      -0.301587        -8.2066 
  71   2.0000      -0.299170        -8.1408 
  72   2.0000      -0.274533        -7.4704 
  73   2.0000      -0.261213        -7.1080 
  74   2.0000      -0.236275        -6.4294 
  75   2.0000      -0.219788        -5.9807 
  76   2.0000      -0.171045        -4.6544 
  77   0.0000      -0.075963        -2.0671 
  78   0.0000      -0.028582        -0.7778 
  79   0.0000      -0.019258        -0.5240 
  80   0.0000       0.002667         0.0726 
  81   0.0000       0.018131         0.4934 
  82   0.0000       0.032847         0.8938 
  83   0.0000       0.033556         0.9131 
  84   0.0000       0.051791         1.4093 
  85   0.0000       0.053310         1.4506 
  86   0.0000       0.066727         1.8157 
  87   0.0000       0.072478         1.9722 
  88   0.0000       0.086911         2.3650 
  89   0.0000       0.089805         2.4437 
  90   0.0000       0.104065         2.8318 
  91   0.0000       0.110912         3.0181 
  92   0.0000       0.114648         3.1197 
  93   0.0000       0.132497         3.6054 
  94   0.0000       0.138723         3.7748 
  95   0.0000       0.139220         3.7884 
  96   0.0000       0.158562         4.3147 
  97   0.0000       0.174906         4.7594 
  98   0.0000       0.184080         5.0091 
  99   0.0000       0.202231         5.5030 
 100   0.0000       0.203669         5.5421 
 101   0.0000       0.216671         5.8959 
 102   0.0000       0.230755         6.2792 
 103   0.0000       0.244077         6.6417 
 104   0.0000       0.251280         6.8377 
 105   0.0000       0.254434         6.9235 
 106   0.0000       0.263649         7.1743 
 107   0.0000       0.277006         7.5377 
 108   0.0000       0.284770         7.7490 
 109   0.0000       0.287534         7.8242 
 110   0.0000       0.292104         7.9485 
 111   0.0000       0.294149         8.0042 
 112   0.0000       0.300095         8.1660 
 113   0.0000       0.315822         8.5939 
 114   0.0000       0.321828         8.7574 
 115   0.0000       0.328275         8.9328 
 116   0.0000       0.336366         9.1530 
 117   0.0000       0.347711         9.4617 
 118   0.0000       0.351446         9.5633 
 119   0.0000       0.353540         9.6203 
 120   0.0000       0.363470         9.8905 
 121   0.0000       0.377684        10.2773 
 122   0.0000       0.381635        10.3848 
 123   0.0000       0.388470        10.5708 
 124   0.0000       0.393813        10.7162 
 125   0.0000       0.404988        11.0203 
 126   0.0000       0.418243        11.3810 
 127   0.0000       0.429700        11.6927 
 128   0.0000       0.431481        11.7412 
 129   0.0000       0.436763        11.8849 
 130   0.0000       0.442638        12.0448 
 131   0.0000       0.447960        12.1896 
 132   0.0000       0.455356        12.3909 
 133   0.0000       0.461571        12.5600 
 134   0.0000       0.466100        12.6832 
 135   0.0000       0.467472        12.7206 
 136   0.0000       0.473890        12.8952 
 137   0.0000       0.477394        12.9905 
 138   0.0000       0.486446        13.2369 
 139   0.0000       0.495225        13.4758 
 140   0.0000       0.503580        13.7031 
 141   0.0000       0.508448        13.8356 
 142   0.0000       0.509440        13.8626 
 143   0.0000       0.513273        13.9669 
 144   0.0000       0.527865        14.3639 
 145   0.0000       0.528811        14.3897 
 146   0.0000       0.541464        14.7340 
 147   0.0000       0.544038        14.8040 
 148   0.0000       0.551175        14.9982 
 149   0.0000       0.553176        15.0527 
 150   0.0000       0.560560        15.2536 
 151   0.0000       0.564147        15.3512 
 152   0.0000       0.573634        15.6094 
 153   0.0000       0.578582        15.7440 
 154   0.0000       0.592646        16.1267 
 155   0.0000       0.598083        16.2747 
 156   0.0000       0.603430        16.4202 
 157   0.0000       0.611329        16.6351 
 158   0.0000       0.614778        16.7290 
 159   0.0000       0.626452        17.0466 
 160   0.0000       0.634661        17.2700 
 161   0.0000       0.637846        17.3567 
 162   0.0000       0.651451        17.7269 
 163   0.0000       0.655987        17.8503 
 164   0.0000       0.656043        17.8518 
 165   0.0000       0.662041        18.0151 
 166   0.0000       0.663081        18.0434 
 167   0.0000       0.676232        18.4012 
 168   0.0000       0.676855        18.4182 
 169   0.0000       0.679854        18.4998 
 170   0.0000       0.686226        18.6732 
 171   0.0000       0.692220        18.8363 
 172   0.0000       0.698712        19.0129 
 173   0.0000       0.702272        19.1098 
 174   0.0000       0.708390        19.2763 
 175   0.0000       0.716828        19.5059 
 176   0.0000       0.723354        19.6835 
 177   0.0000       0.736770        20.0485 
 178   0.0000       0.738652        20.0997 
 179   0.0000       0.756680        20.5903 
 180   0.0000       0.762640        20.7525 
 181   0.0000       0.765800        20.8385 
 182   0.0000       0.766029        20.8447 
 183   0.0000       0.770155        20.9570 
 184   0.0000       0.782447        21.2915 
 185   0.0000       0.816799        22.2262 
 186   0.0000       0.818829        22.2815 
 187   0.0000       0.826827        22.4991 
 188   0.0000       0.826900        22.5011 
 189   0.0000       0.834967        22.7206 
 190   0.0000       0.858789        23.3688 
 191   0.0000       0.865873        23.5616 
 192   0.0000       0.869599        23.6630 
 193   0.0000       0.875143        23.8139 
 194   0.0000       0.893454        24.3121 
 195   0.0000       0.895407        24.3653 
 196   0.0000       0.902071        24.5466 
 197   0.0000       0.907738        24.7008 
 198   0.0000       0.910631        24.7795 
 199   0.0000       0.926272        25.2051 
 200   0.0000       0.932028        25.3618 
 201   0.0000       0.947724        25.7889 
 202   0.0000       0.952362        25.9151 
 203   0.0000       0.962659        26.1953 
 204   0.0000       0.968234        26.3470 
 205   0.0000       0.988224        26.8909 
 206   0.0000       1.027604        27.9625 
 207   0.0000       1.047658        28.5082 
 208   0.0000       1.061866        28.8948 
 209   0.0000       1.091995        29.7147 
 210   0.0000       1.113809        30.3083 
 211   0.0000       1.120415        30.4881 
 212   0.0000       1.135679        30.9034 
 213   0.0000       1.147912        31.2363 
 214   0.0000       1.161507        31.6062 
 215   0.0000       1.163066        31.6486 
 216   0.0000       1.184497        32.2318 
 217   0.0000       1.186866        32.2963 
 218   0.0000       1.195828        32.5401 
 219   0.0000       1.198721        32.6189 
 220   0.0000       1.204223        32.7686 
 221   0.0000       1.213583        33.0233 
 222   0.0000       1.215735        33.0818 
 223   0.0000       1.229108        33.4457 
 224   0.0000       1.231178        33.5021 
 225   0.0000       1.242476        33.8095 
 226   0.0000       1.250116        34.0174 
 227   0.0000       1.251386        34.0519 
 228   0.0000       1.257916        34.2296 
 229   0.0000       1.259810        34.2812 
 230   0.0000       1.261645        34.3311 
 231   0.0000       1.267282        34.4845 
 232   0.0000       1.286298        35.0020 
 233   0.0000       1.290086        35.1050 
 234   0.0000       1.300243        35.3814 
 235   0.0000       1.312939        35.7269 
 236   0.0000       1.320868        35.9427 
 237   0.0000       1.322705        35.9926 
 238   0.0000       1.334696        36.3189 
 239   0.0000       1.345074        36.6013 
 240   0.0000       1.366207        37.1764 
 241   0.0000       1.370614        37.2963 
 242   0.0000       1.375701        37.4347 
 243   0.0000       1.377387        37.4806 
 244   0.0000       1.385508        37.7016 
 245   0.0000       1.390499        37.8374 
 246   0.0000       1.400457        38.1084 
 247   0.0000       1.405028        38.2328 
 248   0.0000       1.444563        39.3086 
 249   0.0000       1.473403        40.0933 
 250   0.0000       1.482007        40.3275 
 251   0.0000       1.525862        41.5208 
 252   0.0000       1.555034        42.3146 
 253   0.0000       1.604386        43.6576 
 254   0.0000       1.633474        44.4491 
 255   0.0000       1.647944        44.8428 
 256   0.0000       1.654032        45.0085 
 257   0.0000       1.673108        45.5276 
 258   0.0000       1.673273        45.5321 
 259   0.0000       1.694247        46.1028 
 260   0.0000       1.699499        46.2457 
 261   0.0000       1.706366        46.4326 
 262   0.0000       1.714101        46.6431 
 263   0.0000       1.724555        46.9275 
 264   0.0000       1.737240        47.2727 
 265   0.0000       1.737596        47.2824 
 266   0.0000       1.742957        47.4283 
 267   0.0000       1.749076        47.5948 
 268   0.0000       1.751219        47.6531 
 269   0.0000       1.764510        48.0148 
 270   0.0000       1.775253        48.3071 
 271   0.0000       1.776933        48.3528 
 272   0.0000       1.781806        48.4854 
 273   0.0000       1.783439        48.5299 
 274   0.0000       1.792899        48.7873 
 275   0.0000       1.793094        48.7926 
 276   0.0000       1.806404        49.1548 
 277   0.0000       1.810843        49.2755 
 278   0.0000       1.815128        49.3921 
 279   0.0000       1.826984        49.7148 
 280   0.0000       1.831968        49.8504 
 281   0.0000       1.845305        50.2133 
 282   0.0000       1.860656        50.6310 
 283   0.0000       1.867340        50.8129 
 284   0.0000       1.869533        50.8726 
 285   0.0000       1.887229        51.3541 
 286   0.0000       1.913880        52.0793 
 287   0.0000       1.922020        52.3008 
 288   0.0000       1.925116        52.3851 
 289   0.0000       1.937405        52.7195 
 290   0.0000       1.947677        52.9990 
 291   0.0000       1.960885        53.3584 
 292   0.0000       1.972334        53.6699 
 293   0.0000       1.982992        53.9600 
 294   0.0000       1.984117        53.9906 
 295   0.0000       1.986587        54.0578 
 296   0.0000       2.019550        54.9547 
 297   0.0000       2.019665        54.9579 
 298   0.0000       2.041956        55.5645 
 299   0.0000       2.055972        55.9458 
 300   0.0000       2.065126        56.1949 
 301   0.0000       2.070748        56.3479 
 302   0.0000       2.080001        56.5997 
 303   0.0000       2.088103        56.8202 
 304   0.0000       2.108276        57.3691 
 305   0.0000       2.121821        57.7377 
 306   0.0000       2.128384        57.9163 
 307   0.0000       2.138260        58.1850 
 308   0.0000       2.146112        58.3987 
 309   0.0000       2.166946        58.9656 
 310   0.0000       2.168723        59.0139 
 311   0.0000       2.186997        59.5112 
 312   0.0000       2.198923        59.8357 
 313   0.0000       2.216078        60.3026 
 314   0.0000       2.219784        60.4034 
 315   0.0000       2.222458        60.4761 
 316   0.0000       2.233760        60.7837 
 317   0.0000       2.236100        60.8474 
 318   0.0000       2.241660        60.9987 
 319   0.0000       2.255157        61.3660 
 320   0.0000       2.272780        61.8455 
 321   0.0000       2.278416        61.9989 
 322   0.0000       2.287176        62.2372 
 323   0.0000       2.290315        62.3226 
 324   0.0000       2.307094        62.7792 
 325   0.0000       2.316955        63.0476 
 326   0.0000       2.325880        63.2904 
 327   0.0000       2.336426        63.5774 
 328   0.0000       2.337469        63.6058 
 329   0.0000       2.346676        63.8563 
 330   0.0000       2.347631        63.8823 
 331   0.0000       2.361263        64.2532 
 332   0.0000       2.378329        64.7176 
 333   0.0000       2.388978        65.0074 
 334   0.0000       2.418855        65.8204 
 335   0.0000       2.426991        66.0418 
 336   0.0000       2.436547        66.3018 
 337   0.0000       2.470435        67.2240 
 338   0.0000       2.478311        67.4383 
 339   0.0000       2.488723        67.7216 
 340   0.0000       2.512643        68.3725 
 341   0.0000       2.540230        69.1232 
 342   0.0000       2.543724        69.2182 
 343   0.0000       2.574631        70.0593 
 344   0.0000       2.575554        70.0844 
 345   0.0000       2.601799        70.7986 
 346   0.0000       2.626393        71.4678 
 347   0.0000       2.633949        71.6734 
 348   0.0000       2.639522        71.8251 
 349   0.0000       2.659276        72.3626 
 350   0.0000       2.663197        72.4693 
 351   0.0000       2.694731        73.3274 
 352   0.0000       2.718302        73.9688 
 353   0.0000       2.723382        74.1070 
 354   0.0000       2.727566        74.2208 
 355   0.0000       2.733909        74.3935 
 356   0.0000       2.739369        74.5420 
 357   0.0000       2.743799        74.6626 
 358   0.0000       2.771837        75.4255 
 359   0.0000       2.775414        75.5229 
 360   0.0000       2.804332        76.3098 
 361   0.0000       2.814140        76.5766 
 362   0.0000       2.829551        76.9960 
 363   0.0000       2.863781        77.9274 
 364   0.0000       2.880932        78.3942 
 365   0.0000       2.882360        78.4330 
 366   0.0000       2.882700        78.4423 
 367   0.0000       2.921005        79.4846 
 368   0.0000       2.938456        79.9594 
 369   0.0000       2.956210        80.4426 
 370   0.0000       2.974958        80.9527 
 371   0.0000       3.030723        82.4702 
 372   0.0000       3.063347        83.3579 
 373   0.0000       3.082426        83.8771 
 374   0.0000       3.093078        84.1669 
 375   0.0000       3.099168        84.3326 
 376   0.0000       3.111229        84.6608 
 377   0.0000       3.139512        85.4305 
 378   0.0000       3.157416        85.9177 
 379   0.0000       3.180570        86.5477 
 380   0.0000       3.200250        87.0832 
 381   0.0000       3.276101        89.1472 
 382   0.0000       3.321483        90.3821 
 383   0.0000       3.390029        92.2474 
 384   0.0000       3.444368        93.7260 
 385   0.0000       3.517646        95.7200 
 386   0.0000       3.559815        96.8675 
 387   0.0000       3.635461        98.9259 
 388   0.0000       3.640513        99.0634 
 389   0.0000       3.754380       102.1619 
 390   0.0000       3.881161       105.6118 
 391   0.0000       3.927744       106.8794 

                    ********************************
                    * MULLIKEN POPULATION ANALYSIS *
                    ********************************

-----------------------
MULLIKEN ATOMIC CHARGES
-----------------------
   0 C :    0.179895
   1 C :   -0.084934
   2 C :   -0.099710
   3 C :    0.147852
   4 C :   -0.093683
   5 C :   -0.134949
   6 C :    0.176291
   7 C :    0.235607
   8 C :   -0.121890
   9 C :   -0.081615
  10 C :    0.127499
  11 C :   -0.082985
  12 C :   -0.158103
  13 C :    0.215781
  14 C :    0.146205
  15 C :    0.159302
  16 C :   -0.050335
  17 C :   -0.119744
  18 C :   -0.207460
  19 C :    0.010370
  20 C :   -0.035260
  21 N :   -0.028835
  22 N :    0.038455
  23 H :   -0.039792
  24 H :   -0.045533
  25 H :   -0.046905
  26 H :   -0.051809
  27 H :   -0.055589
  28 H :   -0.045519
  29 H :   -0.042963
  30 H :   -0.043506
  31 H :   -0.001314
  32 H :   -0.065427
  33 H :    0.022687
  34 H :    0.000058
  35 H :    0.142916
  36 H :    0.134940
Sum of atomic charges:    0.0000000

--------------------------------
MULLIKEN REDUCED ORBITAL CHARGES
--------------------------------
  0 C s       :     3.093580  s :     3.093580
      pz      :     1.028755  p :     2.676281
      px      :     0.781622
      py      :     0.865904
      dz2     :     0.003422  d :     0.050244
      dxz     :     0.007189
      dyz     :     0.007564
      dx2y2   :     0.015940
      dxy     :     0.016128
  1 C s       :     3.260145  s :     3.260145
      pz      :     0.960357  p :     2.783395
      px      :     1.010340
      py      :     0.812698
      dz2     :     0.002761  d :     0.041394
      dxz     :     0.008816
      dyz     :     0.002792
      dx2y2   :     0.014684
      dxy     :     0.012341
  2 C s       :     3.274975  s :     3.274975
      pz      :     1.007756  p :     2.783832
      px      :     0.812364
      py      :     0.963711
      dz2     :     0.002765  d :     0.040904
      dxz     :     0.004301
      dyz     :     0.006070
      dx2y2   :     0.013641
      dxy     :     0.014127
  3 C s       :     3.116480  s :     3.116480
      pz      :     0.949883  p :     2.680821
      px      :     0.907038
      py      :     0.823900
      dz2     :     0.003542  d :     0.054847
      dxz     :     0.008073
      dyz     :     0.009045
      dx2y2   :     0.017089
      dxy     :     0.017098
  4 C s       :     3.266427  s :     3.266427
      pz      :     1.002578  p :     2.786208
      px      :     0.822040
      py      :     0.961590
      dz2     :     0.002769  d :     0.041048
      dxz     :     0.003742
      dyz     :     0.006725
      dx2y2   :     0.013156
      dxy     :     0.014656
  5 C s       :     3.291803  s :     3.291803
      pz      :     0.970761  p :     2.801784
      px      :     0.845294
      py      :     0.985730
      dz2     :     0.002760  d :     0.041362
      dxz     :     0.004006
      dyz     :     0.007549
      dx2y2   :     0.013591
      dxy     :     0.013455
  6 C s       :     3.159607  s :     3.159607
[...]
     82       0.002511   0.001062  -0.000141
     83      -0.000189  -0.000077   0.000015
     84       0.004868   0.000512   0.000119
     85       0.003116   0.000226   0.000040
     86      -0.000064   0.000001   0.000001
     87       0.123203   0.000423   0.000089
     88       0.072325   0.000224   0.000046
     89      -0.001240  -0.000002  -0.000000
     90       0.742099  -0.000033   0.000009
     91      -0.415856  -0.000036  -0.000017
     92       0.058768   0.000002   0.000002
     93       0.418757   0.000134   0.000032
     94       0.257514   0.000111   0.000025
     95      -0.003663  -0.000003  -0.000001
     96      -0.004463  -0.001724   0.001521
     97      -0.002811   0.001092  -0.000941
     98       0.000054  -0.000151   0.000125
     99       0.042398   0.000083   0.000018
    100       0.032591   0.000087   0.000022
    101      -0.000980  -0.000003  -0.000001
    102      -0.000432   0.006771  -0.011714
    103      -0.000340   0.003999  -0.007886
    104       0.000010  -0.000065   0.000186
    105      -0.000011  -0.017719  -0.009666
    106       0.000148  -0.585642  -0.808117
    107      -0.000011   0.043984   0.061221
    108      -0.000104   0.715700  -0.517985
    109      -0.000042   0.373427  -0.259266
    110      -0.000000  -0.003148   0.001436


-----------
IR SPECTRUM
-----------

 Mode   freq       eps      Int      T**2         TX        TY        TZ
       cm**-1   L/(mol*cm) km/mol    a.u.
----------------------------------------------------------------------------
  9:     25.70   0.000001    0.01  0.000017  (-0.000287  0.000781  0.004047)
 10:     62.28   0.000862    4.35  0.004318  (-0.002464  0.005364  0.065442)
 11:     72.19   0.000225    1.14  0.000974  ( 0.016347  0.026479 -0.002407)
 12:     99.46   0.000010    0.05  0.000031  ( 0.000038 -0.001066 -0.005440)
 13:    122.83   0.000980    4.95  0.002489  ( 0.025700  0.042695 -0.002392)
 14:    141.75   0.000037    0.19  0.000081  (-0.000348 -0.000721 -0.008967)
 15:    189.14   0.002636   13.32  0.004348  (-0.002496  0.005241  0.065686)
 16:    219.56   0.000630    3.19  0.000896  ( 0.002417 -0.001259 -0.029808)
 17:    220.84   0.000148    0.75  0.000209  (-0.010867 -0.009062 -0.002998)
 18:    256.16   0.000169    0.86  0.000206  ( 0.013270  0.005511 -0.000135)
 19:    260.61   0.000005    0.03  0.000006  ( 0.000754 -0.000285 -0.002346)
 20:    284.06   0.000208    1.05  0.000228  ( 0.000260 -0.000916 -0.015068)
 21:    315.23   0.001079    5.45  0.001068  (-0.019389  0.026142 -0.002925)
 22:    348.12   0.000234    1.18  0.000210  ( 0.012068 -0.007944  0.001137)
 23:    367.60   0.000669    3.38  0.000568  (-0.001287  0.002382  0.023685)
 24:    420.61   0.002581   13.04  0.001915  ( 0.024829 -0.035822  0.003871)
 25:    437.59   0.000333    1.68  0.000238  (-0.011775  0.009850 -0.001361)
 26:    447.49   0.000001    0.00  0.000000  (-0.000043 -0.000098 -0.000641)
 27:    490.80   0.000011    0.06  0.000007  (-0.000022  0.000089 -0.002702)
 28:    495.86   0.000926    4.68  0.000583  (-0.001027  0.001942  0.024039)
 29:    508.37   0.000040    0.20  0.000025  ( 0.002118 -0.004469  0.000559)
 30:    512.47   0.000718    3.63  0.000438  ( 0.005469 -0.020094  0.001959)
 31:    525.39   0.000009    0.05  0.000005  (-0.000219 -0.000251  0.002311)
 32:    529.57   0.001115    5.63  0.000657  ( 0.001513 -0.025515  0.001922)
 33:    562.33   0.000161    0.81  0.000089  ( 0.004429 -0.008304  0.000835)
 34:    563.66   0.000012    0.06  0.000007  ( 0.000238 -0.000469 -0.002507)
 35:    583.89   0.000235    1.19  0.000126  (-0.000471  0.001027  0.011160)
 36:    620.13   0.002055   10.38  0.001034  (-0.012731  0.029402 -0.002723)
 37:    633.26   0.000399    2.02  0.000197  ( 0.007056 -0.012050  0.001240)
 38:    679.36   0.000056    0.28  0.000026  (-0.000077  0.000296  0.005063)
 39:    702.76   0.000586    2.96  0.000260  ( 0.009252 -0.013147  0.001308)
 40:    716.71   0.000954    4.82  0.000415  (-0.000669  0.001416  0.020319)
 41:    752.82   0.002725   13.77  0.001130  ( 0.001238 -0.002748 -0.033474)
 42:    762.83   0.000266    1.34  0.000109  ( 0.006454 -0.008141  0.000903)
 43:    779.94   0.000085    0.43  0.000034  ( 0.003485 -0.004667  0.000514)
 44:    812.46   0.000140    0.71  0.000054  (-0.000646  0.001181 -0.007210)
 45:    813.58   0.005638   28.49  0.002163  (-0.020258  0.041699 -0.003673)
 46:    825.83   0.000596    3.01  0.000225  (-0.000641  0.001351  0.014932)
 47:    843.37   0.002358   11.92  0.000873  ( 0.001355 -0.002754 -0.029380)
 48:    852.93   0.000065    0.33  0.000024  ( 0.004831  0.000664  0.000108)
 49:    870.44   0.009416   47.58  0.003376  ( 0.001777 -0.004010 -0.057935)
 50:    882.00   0.000315    1.59  0.000111  (-0.000662  0.001263  0.010461)
 51:    889.40   0.002443   12.35  0.000857  (-0.001431  0.002792  0.029109)
 52:    944.50   0.000965    4.87  0.000319  ( 0.000876 -0.001563 -0.017762)
 53:    974.82   0.004197   21.21  0.001344  ( 0.001184 -0.002610 -0.036542)
 54:    978.00   0.007511   37.96  0.002397  (-0.022913  0.043038 -0.004399)
 55:    983.96   0.004284   21.65  0.001359  (-0.001664  0.003338  0.036670)
 56:    989.90   0.000003    0.02  0.000001  ( 0.000041 -0.000082  0.001035)
 57:    999.96   0.001002    5.06  0.000313  (-0.000991  0.001010 -0.017625)
 58:   1000.36   0.001158    5.85  0.000361  ( 0.010942 -0.015510 -0.000988)
 59:   1009.42   0.000181    0.91  0.000056  (-0.000317  0.000598  0.007443)
 60:   1013.78   0.000018    0.09  0.000005  (-0.000074  0.000122  0.002319)
 61:   1037.62   0.000449    2.27  0.000135  (-0.008086  0.008294 -0.000945)
 62:   1056.35   0.004753   24.02  0.001404  ( 0.009730 -0.036056  0.003071)
 63:   1119.47   0.000217    1.09  0.000060  ( 0.001710 -0.007561  0.000544)
 64:   1133.59   0.000104    0.53  0.000029  ( 0.004000 -0.003531  0.000385)
 65:   1181.89   0.000041    0.21  0.000011  ( 0.000413 -0.003240  0.000222)
 66:   1189.12   0.000168    0.85  0.000044  ( 0.005177 -0.004120  0.000459)
 67:   1204.41   0.002212   11.18  0.000573  ( 0.005308 -0.023247  0.002098)
 68:   1211.56   0.003786   19.13  0.000975  ( 0.031079 -0.002723  0.001392)
 69:   1242.80   0.010474   52.93  0.002630  ( 0.033682 -0.038460  0.004036)
 70:   1260.68   0.104640  528.81  0.025902  ( 0.078915 -0.139584  0.013815)
 71:   1265.80   0.001145    5.79  0.000282  (-0.006357  0.015474 -0.001552)
 72:   1272.11   0.000024    0.12  0.000006  (-0.001099  0.002148 -0.000384)
 73:   1281.00   0.002714   13.71  0.000661  ( 0.020419 -0.015493  0.002018)
 74:   1296.58   0.010461   52.86  0.002518  (-0.033914  0.036757 -0.004060)
 75:   1332.23   0.023384  118.17  0.005478  ( 0.033026 -0.065935  0.006275)
 76:   1333.79   0.000704    3.56  0.000165  (-0.012174  0.003948 -0.000982)
 77:   1335.66   0.018034   91.13  0.004213  (-0.033999  0.055033 -0.005365)
 78:   1372.25   0.000042    0.21  0.000010  (-0.001544 -0.002666  0.000116)
 79:   1385.34   0.003368   17.02  0.000759  ( 0.025170 -0.011023  0.001901)
 80:   1404.92   0.001036    5.23  0.000230  ( 0.006910 -0.013441  0.001266)
 81:   1412.31   0.002976   15.04  0.000658  ( 0.011242 -0.022944  0.002193)
 82:   1425.19   0.003245   16.40  0.000710  ( 0.002061 -0.026484  0.002191)
 83:   1444.18   0.002104   10.63  0.000455  (-0.011276  0.018002 -0.001822)
 84:   1468.39   0.001306    6.60  0.000278  (-0.013839  0.009203 -0.001154)
 85:   1506.69   0.000573    2.90  0.000119  ( 0.009541  0.005262 -0.000049)
 86:   1535.64   0.001946    9.83  0.000395  (-0.017472  0.009406 -0.001301)
 87:   1547.58   0.013202   66.72  0.002662  (-0.023591  0.045671 -0.004452)
 88:   1573.69   0.006843   34.58  0.001357  ( 0.024282 -0.027533  0.003057)
 89:   1609.86   0.002224   11.24  0.000431  (-0.020549 -0.002948 -0.000464)
 90:   1622.52   0.000188    0.95  0.000036  (-0.004984  0.003327 -0.000441)
 91:   1635.61   0.151790  767.08  0.028960  (-0.094923  0.140492 -0.014566)
 92:   1656.53   0.002664   13.46  0.000502  ( 0.012919  0.018256 -0.001302)
 93:   1662.07   0.033798  170.80  0.006346  ( 0.041799 -0.067458  0.006927)
 94:   1672.68   0.006989   35.32  0.001304  ( 0.011198 -0.034211  0.002834)
 95:   1711.17   0.184446  932.12  0.033637  (-0.103173  0.150870 -0.015194)
 96:   2334.89   0.034290  173.29  0.004583  (-0.042663  0.052209 -0.006086)
 97:   3167.56   0.000371    1.88  0.000037  ( 0.005888 -0.001340  0.000302)
 98:   3171.42   0.000186    0.94  0.000018  (-0.003882 -0.001807  0.000026)
 99:   3171.64   0.003547   17.93  0.000349  (-0.018651 -0.000895 -0.000591)
100:   3174.06   0.005547   28.03  0.000545  (-0.021824  0.008175 -0.001515)
101:   3176.04   0.000078    0.40  0.000008  (-0.001431  0.002371 -0.000175)
102:   3178.32   0.000640    3.23  0.000063  (-0.002974 -0.007330  0.000489)
103:   3181.71   0.002067   10.44  0.000203  ( 0.009877 -0.010193  0.001121)
104:   3193.97   0.005490   27.74  0.000536  ( 0.007037  0.022019 -0.001411)
105:   3197.93   0.002421   12.24  0.000236  (-0.006674 -0.013828  0.000739)
106:   3200.28   0.000381    1.93  0.000037  ( 0.003364 -0.005052  0.000571)
107:   3218.65   0.003686   18.63  0.000357  ( 0.018677 -0.002786  0.000881)
108:   3221.87   0.002790   14.10  0.000270  (-0.015357  0.005772 -0.001012)
109:   3607.79   0.057390  290.02  0.004964  ( 0.043769 -0.054908  0.005782)
110:   3736.54   0.015108   76.35  0.001262  (-0.003650 -0.035238  0.002585)

* The epsilon (eps) is given for a Dirac delta lineshape.
** The dipole moment derivative (T) already includes vibrational overlap.

The first frequency considered to be a vibration is 9
The total number of vibrations considered is 102


--------------------------
THERMOCHEMISTRY AT 298.15K
--------------------------

Temperature         ... 298.15 K
Pressure            ... 1.00 atm
Total Mass          ... 294.36 AMU

Throughout the following assumptions are being made:
  (1) The electronic state is orbitally nondegenerate
  (2) There are no thermally accessible electronically excited states
  (3) Hindered rotations indicated by low frequency modes are not
      treated as such but are treated as vibrations and this may
      cause some error
  (4) All equations used are the standard statistical mechanics
      equations for an ideal gas
  (5) All vibrations are strictly harmonic

freq.      25.70  E(vib)   ...       0.56 
freq.      62.28  E(vib)   ...       0.51 
freq.      72.19  E(vib)   ...       0.50 
freq.      99.46  E(vib)   ...       0.46 
freq.     122.83  E(vib)   ...       0.43 
freq.     141.75  E(vib)   ...       0.41 
freq.     189.14  E(vib)   ...       0.36 
freq.     219.56  E(vib)   ...       0.33 
freq.     220.84  E(vib)   ...       0.33 
freq.     256.16  E(vib)   ...       0.30 
freq.     260.61  E(vib)   ...       0.30 
freq.     284.06  E(vib)   ...       0.28 
freq.     315.23  E(vib)   ...       0.25 
freq.     348.12  E(vib)   ...       0.23 
freq.     367.60  E(vib)   ...       0.21 
freq.     420.61  E(vib)   ...       0.18 
freq.     437.59  E(vib)   ...       0.17 
freq.     447.49  E(vib)   ...       0.17 
freq.     490.80  E(vib)   ...       0.14 
freq.     495.86  E(vib)   ...       0.14 
freq.     508.37  E(vib)   ...       0.14 
freq.     512.47  E(vib)   ...       0.13 
freq.     525.39  E(vib)   ...       0.13 
freq.     529.57  E(vib)   ...       0.13 
freq.     562.33  E(vib)   ...       0.11 
freq.     563.66  E(vib)   ...       0.11 
freq.     583.89  E(vib)   ...       0.11 
freq.     620.13  E(vib)   ...       0.09 
freq.     633.26  E(vib)   ...       0.09 
freq.     679.36  E(vib)   ...       0.08 
freq.     702.76  E(vib)   ...       0.07 
freq.     716.71  E(vib)   ...       0.07 
freq.     752.82  E(vib)   ...       0.06 
freq.     762.83  E(vib)   ...       0.06 
freq.     779.94  E(vib)   ...       0.05 
freq.     812.46  E(vib)   ...       0.05 
freq.     813.58  E(vib)   ...       0.05 
freq.     825.83  E(vib)   ...       0.04 
freq.     843.37  E(vib)   ...       0.04 
freq.     852.93  E(vib)   ...       0.04 
freq.     870.44  E(vib)   ...       0.04 
freq.     882.00  E(vib)   ...       0.04 
freq.     889.40  E(vib)   ...       0.04 
freq.     944.50  E(vib)   ...       0.03 
freq.     974.82  E(vib)   ...       0.03 
freq.     978.00  E(vib)   ...       0.03 
freq.     983.96  E(vib)   ...       0.02 
freq.     989.90  E(vib)   ...       0.02 
freq.     999.96  E(vib)   ...       0.02 
freq.    1000.36  E(vib)   ...       0.02 
freq.    1009.42  E(vib)   ...       0.02 
freq.    1013.78  E(vib)   ...       0.02 
freq.    1037.62  E(vib)   ...       0.02 
freq.    1056.35  E(vib)   ...       0.02 
freq.    1119.47  E(vib)   ...       0.01 
freq.    1133.59  E(vib)   ...       0.01 
freq.    1181.89  E(vib)   ...       0.01 
freq.    1189.12  E(vib)   ...       0.01 
freq.    1204.41  E(vib)   ...       0.01 
freq.    1211.56  E(vib)   ...       0.01 
freq.    1242.80  E(vib)   ...       0.01 
freq.    1260.68  E(vib)   ...       0.01 
freq.    1265.80  E(vib)   ...       0.01 
freq.    1272.11  E(vib)   ...       0.01 
freq.    1281.00  E(vib)   ...       0.01 
freq.    1296.58  E(vib)   ...       0.01 
freq.    1332.23  E(vib)   ...       0.01 
freq.    1333.79  E(vib)   ...       0.01 
freq.    1335.66  E(vib)   ...       0.01 
freq.    1372.25  E(vib)   ...       0.01 
freq.    1385.34  E(vib)   ...       0.00 
freq.    1404.92  E(vib)   ...       0.00 
freq.    1412.31  E(vib)   ...       0.00 
freq.    1425.19  E(vib)   ...       0.00 
freq.    1444.18  E(vib)   ...       0.00 
freq.    1468.39  E(vib)   ...       0.00 
freq.    1506.69  E(vib)   ...       0.00 
freq.    1535.64  E(vib)   ...       0.00 
freq.    1547.58  E(vib)   ...       0.00 
freq.    1573.69  E(vib)   ...       0.00 
freq.    1609.86  E(vib)   ...       0.00 
freq.    1622.52  E(vib)   ...       0.00 
freq.    1635.61  E(vib)   ...       0.00 
freq.    1656.53  E(vib)   ...       0.00 
freq.    1662.07  E(vib)   ...       0.00 
freq.    1672.68  E(vib)   ...       0.00 
freq.    1711.17  E(vib)   ...       0.00 
freq.    2334.89  E(vib)   ...       0.00 
freq.    3167.56  E(vib)   ...       0.00 
freq.    3171.42  E(vib)   ...       0.00 
freq.    3171.64  E(vib)   ...       0.00 
freq.    3174.06  E(vib)   ...       0.00 
freq.    3176.04  E(vib)   ...       0.00 
freq.    3178.32  E(vib)   ...       0.00 
freq.    3181.71  E(vib)   ...       0.00 
freq.    3193.97  E(vib)   ...       0.00 
freq.    3197.93  E(vib)   ...       0.00 
freq.    3200.28  E(vib)   ...       0.00 
freq.    3218.65  E(vib)   ...       0.00 
freq.    3221.87  E(vib)   ...       0.00 
freq.    3607.79  E(vib)   ...       0.00 
freq.    3736.54  E(vib)   ...       0.00 

------------
INNER ENERGY
------------

The inner energy is: U= E(el) + E(ZPE) + E(vib) + E(rot) + E(trans)
    E(el)   - is the total energy from the electronic structure calculation
              = E(kin-el) + E(nuc-el) + E(el-el) + E(nuc-nuc)
    E(ZPE)  - the the zero temperature vibrational energy from the frequency calculation
    E(vib)  - the the finite temperature correction to E(ZPE) due to population
              of excited vibrational states
    E(rot)  - is the rotational thermal energy
    E(trans)- is the translational thermal energy

Summary of contributions to the inner energy U:
Electronic energy                ...   -916.94660859 Eh
Zero point energy                ...      0.28871230 Eh     181.17 kcal/mol
Thermal vibrational correction   ...      0.01350492 Eh       8.47 kcal/mol
Thermal rotational correction    ...      0.00141627 Eh       0.89 kcal/mol
Thermal translational correction ...      0.00141627 Eh       0.89 kcal/mol
-----------------------------------------------------------------------
Total thermal energy                   -916.64155882 Eh


Summary of corrections to the electronic energy:
(perhaps to be used in another calculation)
Total thermal correction                  0.01633746 Eh      10.25 kcal/mol
Non-thermal (ZPE) correction              0.28871230 Eh     181.17 kcal/mol
-----------------------------------------------------------------------
Total correction                          0.30504976 Eh     191.42 kcal/mol


--------
ENTHALPY
--------

The enthalpy is H = U + kB*T
                kB is Boltzmann's constant
Total free energy                 ...   -916.64155882 Eh 
Thermal Enthalpy correction       ...      0.00094421 Eh       0.59 kcal/mol
-----------------------------------------------------------------------
Total Enthalpy                    ...   -916.64061461 Eh


Note: Only C1 symmetry has been detected, increase convergence thresholds 
      if your molecule has a higher symmetry. Symmetry factor of 1.0 is   
      used for the rotational entropy correction. 
 

Note: Rotational entropy computed according to Herzberg 
Infrared and Raman Spectra, Chapter V,1, Van Nostrand Reinhold, 1945 
Point Group:  C1, Symmetry Number:   1  
Rotational constants in cm-1:     0.026220     0.003951     0.003434 

Vibrational entropy computed according to the QRRHO of S. Grimme
Chem.Eur.J. 2012 18 9955


-------
ENTROPY
-------

The entropy contributions are T*S = T*(S(el)+S(vib)+S(rot)+S(trans))
     S(el)   - electronic entropy
     S(vib)  - vibrational entropy
     S(rot)  - rotational entropy
     S(trans)- translational entropy
The entropies will be listed as multiplied by the temperature to get
units of energy

Electronic entropy                ...      0.00000000 Eh      0.00 kcal/mol
Vibrational entropy               ...      0.02279168 Eh     14.30 kcal/mol
Rotational entropy                ...      0.01652090 Eh     10.37 kcal/mol
Translational entropy             ...      0.02040028 Eh     12.80 kcal/mol
-----------------------------------------------------------------------
Final entropy term                ...      0.05971286 Eh     37.47 kcal/mol

In case the symmetry of your molecule has not been determined correctly
or in case you have a reason to use a different symmetry number we print 
out the resulting rotational entropy values for sn=1,12 :
 --------------------------------------------------------
|  sn= 1 | S(rot)=       0.01652090 Eh     10.37 kcal/mol|
|  sn= 2 | S(rot)=       0.01586644 Eh      9.96 kcal/mol|
|  sn= 3 | S(rot)=       0.01548361 Eh      9.72 kcal/mol|
|  sn= 4 | S(rot)=       0.01521199 Eh      9.55 kcal/mol|
|  sn= 5 | S(rot)=       0.01500130 Eh      9.41 kcal/mol|
|  sn= 6 | S(rot)=       0.01482916 Eh      9.31 kcal/mol|
|  sn= 7 | S(rot)=       0.01468361 Eh      9.21 kcal/mol|
|  sn= 8 | S(rot)=       0.01455753 Eh      9.13 kcal/mol|
|  sn= 9 | S(rot)=       0.01444632 Eh      9.07 kcal/mol|
|  sn=10 | S(rot)=       0.01434684 Eh      9.00 kcal/mol|
|  sn=11 | S(rot)=       0.01425685 Eh      8.95 kcal/mol|
|  sn=12 | S(rot)=       0.01417470 Eh      8.89 kcal/mol|
 --------------------------------------------------------


-------------------
GIBBS FREE ENERGY
-------------------

The Gibbs free energy is G = H - T*S

Total enthalpy                    ...   -916.64061461 Eh 
Total entropy correction          ...     -0.05971286 Eh    -37.47 kcal/mol
-----------------------------------------------------------------------
Final Gibbs free energy         ...   -916.70032748 Eh

For completeness - the Gibbs free energy minus the electronic energy
G-E(el)                           ...      0.24628111 Eh    154.54 kcal/mol


Timings for individual modules:

Sum of individual times         ...     1511.297 sec (=  25.188 min)
GTO integral calculation        ...       49.001 sec (=   0.817 min)   3.2 %
SCF iterations                  ...      640.134 sec (=  10.669 min)  42.4 %
SCF Gradient evaluation         ...      124.695 sec (=   2.078 min)   8.3 %
Geometry relaxation             ...        1.446 sec (=   0.024 min)   0.1 %
Analytical frequency calculation...      696.021 sec (=  11.600 min)  46.1 %
                             ****ORCA TERMINATED NORMALLY****
TOTAL RUN TIME: 0 days 0 hours 25 minutes 25 seconds 329 msec
