 Entering Gaussian System, Link 0=g16
 Initial command:
 /opt/bwhpc/common/chem/gaussian/g16.C.01/x86_64-Intel-avx2-source/g16/l1.exe "/scratch/ka_pr7831.18361071/Gau-4019640.inp" -scrdir="/scratch/ka_pr7831.18361071/"
 Entering Link 1 = /opt/bwhpc/common/chem/gaussian/g16.C.01/x86_64-Intel-avx2-source/g16/l1.exe PID=   4019642.
  
 Copyright (c) 1988-2019, Gaussian, Inc.  All Rights Reserved.
  
 This is part of the Gaussian(R) 16 program.  It is based on
 the Gaussian(R) 09 system (copyright 2009, Gaussian, Inc.),
 the Gaussian(R) 03 system (copyright 2003, Gaussian, Inc.),
 the Gaussian(R) 98 system (copyright 1998, Gaussian, Inc.),
 the Gaussian(R) 94 system (copyright 1995, Gaussian, Inc.),
 the Gaussian 92(TM) system (copyright 1992, Gaussian, Inc.),
 the Gaussian 90(TM) system (copyright 1990, Gaussian, Inc.),
 the Gaussian 88(TM) system (copyright 1988, Gaussian, Inc.),
 the Gaussian 86(TM) system (copyright 1986, Carnegie Mellon
 University), and the Gaussian 82(TM) system (copyright 1983,
 Carnegie Mellon University). Gaussian is a federally registered
 trademark of Gaussian, Inc.
  
 This software contains proprietary and confidential information,
 including trade secrets, belonging to Gaussian, Inc.
  
 This software is provided under written license and may be
 used, copied, transmitted, or stored only in accord with that
 written license.
  
 The following legend is applicable only to US Government
 contracts under FAR:
  
                    RESTRICTED RIGHTS LEGEND
  
 Use, reproduction and disclosure by the US Government is
 subject to restrictions as set forth in subparagraphs (a)
 and (c) of the Commercial Computer Software - Restricted
 Rights clause in FAR 52.227-19.
  
 Gaussian, Inc.
 340 Quinnipiac St., Bldg. 40, Wallingford CT 06492
  
  
 ---------------------------------------------------------------
 Warning -- This program may not be used in any manner that
 competes with the business of Gaussian, Inc. or will provide
 assistance to any competitor of Gaussian, Inc.  The licensee
 of this program is prohibited from giving any competitor of
 Gaussian, Inc. access to this program.  By using this program,
 the user acknowledges that Gaussian, Inc. is engaged in the
 business of creating and licensing software in the field of
 computational chemistry and represents and warrants to the
 licensee that it is not a competitor of Gaussian, Inc. and that
 it will not use this program in any manner prohibited above.
 ---------------------------------------------------------------
  

 Cite this work as:
 Gaussian 16, Revision C.01,
 M. J. Frisch, G. W. Trucks, H. B. Schlegel, G. E. Scuseria, 
 M. A. Robb, J. R. Cheeseman, G. Scalmani, V. Barone, 
 G. A. Petersson, H. Nakatsuji, X. Li, M. Caricato, A. V. Marenich, 
 J. Bloino, B. G. Janesko, R. Gomperts, B. Mennucci, H. P. Hratchian, 
 J. V. Ortiz, A. F. Izmaylov, J. L. Sonnenberg, D. Williams-Young, 
 F. Ding, F. Lipparini, F. Egidi, J. Goings, B. Peng, A. Petrone, 
 T. Henderson, D. Ranasinghe, V. G. Zakrzewski, J. Gao, N. Rega, 
 G. Zheng, W. Liang, M. Hada, M. Ehara, K. Toyota, R. Fukuda, 
 J. Hasegawa, M. Ishida, T. Nakajima, Y. Honda, O. Kitao, H. Nakai, 
 T. Vreven, K. Throssell, J. A. Montgomery, Jr., J. E. Peralta, 
 F. Ogliaro, M. J. Bearpark, J. J. Heyd, E. N. Brothers, K. N. Kudin, 
 V. N. Staroverov, T. A. Keith, R. Kobayashi, J. Normand, 
 K. Raghavachari, A. P. Rendell, J. C. Burant, S. S. Iyengar, 
 J. Tomasi, M. Cossi, J. M. Millam, M. Klene, C. Adamo, R. Cammi, 
 J. W. Ochterski, R. L. Martin, K. Morokuma, O. Farkas, 
 J. B. Foresman, and D. J. Fox, Gaussian, Inc., Wallingford CT, 2019.
 
 ******************************************
 Gaussian 16:  ES64L-G16RevC.01  3-Jul-2019
                13-Aug-2025 
 ******************************************
 %chk=beta.chk
 %mem=10GB
 %nprocs=8
 Will use up to    8 processors via shared memory.
 --------------------------
 #P mp2/cc-pvdz polar=Cubic
 --------------------------
 1/30=1,38=101,172=1/1,6;
 2/12=2,17=6,18=5,40=1/2;
 3/5=16,11=9,25=1,30=1,71=2,140=1/1,2,3;
 4/69=2/1;
 5/5=2,38=5,98=1/2;
 8/6=4,8=1,10=1,19=10,30=-1/1;
 9/15=5,16=-3/6;
 10/6=2,13=10,21=1,60=-2/2;
 8/6=4,8=1,10=1,19=10,30=-1/11,4;
 10/5=1,13=10,20=4,60=-2/2;
 11/12=2,14=10,16=1,17=2,28=-2,32=3,42=3/12;
 6/7=2,8=2,9=2,10=2,22=-1/1;
 1/38=100/6(1);
 99/9=1/99;
 3/5=16,11=9,14=-3,25=1,30=1,71=2,140=1/1,2,3;
 4/5=5,16=3,69=2/1;
 5/5=2,38=5,98=1/2;
 8/6=4,8=1,10=1,19=10,30=-1/1;
 9/15=5,16=-3/6;
 10/6=2,13=10,21=1,60=-2/2;
 8/6=4,8=1,10=1,19=10,30=-1/11,4;
 10/5=1,13=10,20=4,60=-2/2;
 11/12=2,14=10,16=1,17=2,28=-2,32=3,42=3/12;
 6/7=2,8=2,9=2,10=2,22=-1/1;
 1/38=100/6(-10);
 99/9=1/99;
 Leave Link    1 at Wed Aug 13 16:11:21 2025, MaxMem=  1342177280 cpu:               0.3 elap:               0.0
 (Enter /opt/bwhpc/common/chem/gaussian/g16.C.01/x86_64-Intel-avx2-source/g16/l101.exe)
 --
 p1
 --
 Symbolic Z-matrix:
 Charge =  0 Multiplicity = 1
 C                    -7.11705   2.8813   -0.25747 
 C                    -5.85853   3.52461  -0.24193 
 C                    -4.67593   2.81656  -0.14011 
 C                    -4.68382   1.40795  -0.04952 
 C                    -3.4736    0.65431   0.06802 
 C                    -3.49007  -0.70998   0.15251 
 C                    -4.71449  -1.45861   0.11953 
 C                    -4.74016  -2.88957   0.19592 
 C                    -6.00178  -3.52758   0.17912 
 C                    -7.18898  -2.817     0.10499 
 C                    -7.19213  -1.41139   0.01929 
 C                    -8.40196  -0.65614  -0.08138 
 C                    -8.39261   0.70745  -0.17198 
 C                    -7.16374   1.45198  -0.16762 
 C                    -5.93302   0.71278  -0.06606 
 C                    -5.94293  -0.72022   0.02243 
 C                    -8.34046   3.66123  -0.36174 
 C                    -3.50876  -3.67144   0.27562 
 C                    -8.45359   5.00169  -0.45085 
 C                    -3.41798  -4.94585   0.73805 
 N                    -2.29387  -5.72975   0.72662 
 N                    -9.76341   5.62147  -0.54831 
 O                    -9.7697    6.84569  -0.62383 
 O                    -10.76671   4.91787  -0.55084 
 H                    -5.81454   4.6133   -0.31051 
 H                    -3.71938   3.34559  -0.1279 
 H                    -2.52383   1.19536   0.09618 
 H                    -2.54302  -1.23925   0.25908 
 H                    -6.04566  -4.6187    0.1911 
 H                    -8.1428   -3.35208   0.08824 
 H                    -9.35361  -1.19526  -0.0856 
 H                    -9.34487   1.23143  -0.24721 
 H                    -9.29797   3.13808  -0.37213 
 H                    -2.58336  -3.19903  -0.06586 
 H                    -7.65905   5.74455  -0.4612 
 H                    -4.29978  -5.45067   1.14619 
 H                    -2.24164  -6.51077   1.36809 
 H                    -1.40319  -5.30242   0.49821 
 
 ITRead=  0  0  0  0  0  0  0  0  0  0  0  0  0  0  0  0  0  0  0  0
 ITRead=  0  0  0  0  0  0  0  0  0  0  0  0  0  0  0  0  0  0
 MicOpt= -1 -1 -1 -1 -1 -1 -1 -1 -1 -1 -1 -1 -1 -1 -1 -1 -1 -1 -1 -1
 MicOpt= -1 -1 -1 -1 -1 -1 -1 -1 -1 -1 -1 -1 -1 -1 -1 -1 -1 -1
 NAtoms=     38 NQM=       38 NQMF=       0 NMMI=      0 NMMIF=      0
                NMic=       0 NMicF=      0.
                    Isotopes and Nuclear Properties:
 (Nuclear quadrupole moments (NQMom) in fm**2, nuclear magnetic moments (NMagM)
  in nuclear magnetons)

  Atom         1           2           3           4           5           6           7           8           9          10
 IAtWgt=          12          12          12          12          12          12          12          12          12          12
 AtmWgt=  12.0000000  12.0000000  12.0000000  12.0000000  12.0000000  12.0000000  12.0000000  12.0000000  12.0000000  12.0000000
 NucSpn=           0           0           0           0           0           0           0           0           0           0
 AtZEff=  -0.0000000  -0.0000000  -0.0000000  -0.0000000  -0.0000000  -0.0000000  -0.0000000  -0.0000000  -0.0000000  -0.0000000
 NQMom=    0.0000000   0.0000000   0.0000000   0.0000000   0.0000000   0.0000000   0.0000000   0.0000000   0.0000000   0.0000000
 NMagM=    0.0000000   0.0000000   0.0000000   0.0000000   0.0000000   0.0000000   0.0000000   0.0000000   0.0000000   0.0000000
 AtZNuc=   6.0000000   6.0000000   6.0000000   6.0000000   6.0000000   6.0000000   6.0000000   6.0000000   6.0000000   6.0000000

  Atom        11          12          13          14          15          16          17          18          19          20
 IAtWgt=          12          12          12          12          12          12          12          12          12          12
 AtmWgt=  12.0000000  12.0000000  12.0000000  12.0000000  12.0000000  12.0000000  12.0000000  12.0000000  12.0000000  12.0000000
 NucSpn=           0           0           0           0           0           0           0           0           0           0
 AtZEff=  -0.0000000  -0.0000000  -0.0000000  -0.0000000  -0.0000000  -0.0000000  -0.0000000  -0.0000000  -0.0000000  -0.0000000
 NQMom=    0.0000000   0.0000000   0.0000000   0.0000000   0.0000000   0.0000000   0.0000000   0.0000000   0.0000000   0.0000000
 NMagM=    0.0000000   0.0000000   0.0000000   0.0000000   0.0000000   0.0000000   0.0000000   0.0000000   0.0000000   0.0000000
 AtZNuc=   6.0000000   6.0000000   6.0000000   6.0000000   6.0000000   6.0000000   6.0000000   6.0000000   6.0000000   6.0000000

  Atom        21          22          23          24          25          26          27          28          29          30
 IAtWgt=          14          14          16          16           1           1           1           1           1           1
 AtmWgt=  14.0030740  14.0030740  15.9949146  15.9949146   1.0078250   1.0078250   1.0078250   1.0078250   1.0078250   1.0078250
 NucSpn=           2           2           0           0           1           1           1           1           1           1
 AtZEff=  -0.0000000  -0.0000000  -0.0000000  -0.0000000  -0.0000000  -0.0000000  -0.0000000  -0.0000000  -0.0000000  -0.0000000
 NQMom=    2.0440000   2.0440000   0.0000000   0.0000000   0.0000000   0.0000000   0.0000000   0.0000000   0.0000000   0.0000000
 NMagM=    0.4037610   0.4037610   0.0000000   0.0000000   2.7928460   2.7928460   2.7928460   2.7928460   2.7928460   2.7928460
 AtZNuc=   7.0000000   7.0000000   8.0000000   8.0000000   1.0000000   1.0000000   1.0000000   1.0000000   1.0000000   1.0000000

  Atom        31          32          33          34          35          36          37          38
 IAtWgt=           1           1           1           1           1           1           1           1
 AtmWgt=   1.0078250   1.0078250   1.0078250   1.0078250   1.0078250   1.0078250   1.0078250   1.0078250
 NucSpn=           1           1           1           1           1           1           1           1
 AtZEff=  -0.0000000  -0.0000000  -0.0000000  -0.0000000  -0.0000000  -0.0000000  -0.0000000  -0.0000000
 NQMom=    0.0000000   0.0000000   0.0000000   0.0000000   0.0000000   0.0000000   0.0000000   0.0000000
 NMagM=    2.7928460   2.7928460   2.7928460   2.7928460   2.7928460   2.7928460   2.7928460   2.7928460
 AtZNuc=   1.0000000   1.0000000   1.0000000   1.0000000   1.0000000   1.0000000   1.0000000   1.0000000
 Leave Link  101 at Wed Aug 13 16:11:21 2025, MaxMem=  1342177280 cpu:               1.7 elap:               0.2
 (Enter /opt/bwhpc/common/chem/gaussian/g16.C.01/x86_64-Intel-avx2-source/g16/l106.exe)
 Differentiate once with respect to electric field.
 Nuclear step= 0.001000 Angstroms, electric field step= 0.000333 atomic units, NStep=1.
 Leave Link  106 at Wed Aug 13 16:11:22 2025, MaxMem=  1342177280 cpu:               0.0 elap:               0.0
 (Enter /opt/bwhpc/common/chem/gaussian/g16.C.01/x86_64-Intel-avx2-source/g16/l202.exe)
                          Input orientation:                          
 ---------------------------------------------------------------------
 Center     Atomic      Atomic             Coordinates (Angstroms)
 Number     Number       Type             X           Y           Z
 ---------------------------------------------------------------------
      1          6           0       -7.117052    2.881304   -0.257469
      2          6           0       -5.858534    3.524605   -0.241928
      3          6           0       -4.675932    2.816559   -0.140109
      4          6           0       -4.683820    1.407951   -0.049515
      5          6           0       -3.473602    0.654305    0.068019
      6          6           0       -3.490069   -0.709980    0.152510
      7          6           0       -4.714488   -1.458612    0.119528
      8          6           0       -4.740156   -2.889569    0.195921
      9          6           0       -6.001779   -3.527577    0.179121
     10          6           0       -7.188978   -2.817002    0.104987
     11          6           0       -7.192125   -1.411394    0.019286
     12          6           0       -8.401963   -0.656142   -0.081376
     13          6           0       -8.392606    0.707449   -0.171978
     14          6           0       -7.163741    1.451984   -0.167622
     15          6           0       -5.933020    0.712778   -0.066061
     16          6           0       -5.942931   -0.720223    0.022427
     17          6           0       -8.340456    3.661227   -0.361740
     18          6           0       -3.508762   -3.671440    0.275617
     19          6           0       -8.453587    5.001686   -0.450852
     20          6           0       -3.417984   -4.945850    0.738051
     21          7           0       -2.293871   -5.729754    0.726620
     22          7           0       -9.763415    5.621467   -0.548313
     23          8           0       -9.769705    6.845685   -0.623828
     24          8           0      -10.766709    4.917873   -0.550840
     25          1           0       -5.814540    4.613297   -0.310505
     26          1           0       -3.719381    3.345593   -0.127896
     27          1           0       -2.523825    1.195358    0.096184
     28          1           0       -2.543025   -1.239252    0.259084
     29          1           0       -6.045658   -4.618697    0.191105
     30          1           0       -8.142801   -3.352083    0.088242
     31          1           0       -9.353613   -1.195258   -0.085599
     32          1           0       -9.344866    1.231427   -0.247206
     33          1           0       -9.297974    3.138079   -0.372130
     34          1           0       -2.583363   -3.199030   -0.065855
     35          1           0       -7.659053    5.744552   -0.461199
     36          1           0       -4.299780   -5.450666    1.146189
     37          1           0       -2.241645   -6.510766    1.368092
     38          1           0       -1.403191   -5.302423    0.498207
 ---------------------------------------------------------------------
                    Distance matrix (angstroms):
                    1          2          3          4          5
     1  C    0.000000
     2  C    1.413488   0.000000
     3  C    2.444797   1.382116   0.000000
     4  C    2.852128   2.428416   1.411541   0.000000
     5  C    4.282545   3.744675   2.482792   1.430532   0.000000
     6  C    5.120587   4.867948   3.732074   2.439566   1.366998
     7  C    4.974868   5.125617   4.283222   2.871706   2.450892
     8  C    6.257649   6.525651   5.716375   4.304891   3.765576
     9  C    6.519831   7.066192   6.489055   5.113582   4.887961
    10  C    5.710274   6.488945   6.173531   4.914256   5.084817
    11  C    4.302265   5.119647   4.922624   3.774259   4.254045
    12  C    3.767696   4.896270   5.093762   4.252774   5.101797
    13  C    2.521902   3.789827   4.273527   3.776347   4.925142
    14  C    1.432902   2.450479   2.837608   2.483122   3.782716
    15  C    2.478119   2.818307   2.451867   1.429699   2.463764
    16  C    3.798407   4.253889   3.760390   2.473794   2.826481
    17  C    1.454603   2.488565   3.767137   4.306475   5.736945
    18  C    7.499493   7.587644   6.605244   5.223665   4.330867
    19  C    2.513909   2.993279   4.375159   5.223710   6.630927
    20  C    8.714270   8.869343   7.912559   6.526360   5.640370
    21  N    9.918761   9.964340   8.914309   7.567104   6.525468
    22  N    3.820513   4.442837   5.823798   6.618520   8.038303
    23  O    4.784047   5.145161   6.512631   7.467598   8.857356
    24  O    4.189710   5.111438   6.456143   7.040768   8.470561
    25  H    2.167753   1.091736   2.133947   3.408943   4.614855
    26  H    3.431694   2.149657   1.093168   2.165813   2.709579
    27  H    4.905631   4.081666   2.704753   2.175316   1.093438
    28  H    6.177988   5.825629   4.599810   3.418467   2.118500
    29  H    7.589408   8.156954   7.567621   6.183282   5.868149
    30  H    6.326673   7.253671   7.079794   5.885699   6.152478
    31  H    4.652967   5.875128   6.162658   5.346491   6.165956
    32  H    2.772247   4.172914   4.931841   4.668575   5.907975
    33  H    2.198977   3.463539   4.639017   4.938405   6.347139
    34  H    7.586931   7.480977   6.369590   5.063245   3.957100
    35  H    2.921209   2.866725   4.192285   5.275188   6.611254
    36  H    8.906683   9.214775   8.375145   6.972647   6.254254
    37  H   10.706215  10.788083   9.757020   8.407134   7.385537
    38  H   10.009628   9.915357   8.777024   7.489435   6.320940
                    6          7          8          9         10
     6  C    0.000000
     7  C    1.435528   0.000000
     8  C    2.513008   1.433224   0.000000
     9  C    3.774685   2.437474   1.413869   0.000000
    10  C    4.257197   2.822859   2.451584   1.385589   0.000000
    11  C    3.770272   2.480113   2.868511   2.433249   1.408222
    12  C    4.917754   3.779125   4.298129   3.751517   2.485030
    13  C    5.113635   4.278475   5.139482   4.875938   3.734593
    14  C    4.274626   3.814821   4.985479   5.125076   4.277755
    15  C    2.835493   2.496837   3.803743   4.247993   3.750471
    16  C    2.456330   1.436565   2.486530   2.812340   2.440478
    17  C    6.549668   6.292218   7.495737   7.578974   6.596300
    18  C    2.964077   2.524826   1.460823   2.499027   3.781953
    19  C    7.591026   7.486096   8.745272   8.896997   7.939777
    20  C    4.276757   3.771514   2.504063   2.999982   4.376433
    21  N    5.192169   4.946777   3.785842   4.347173   5.729976
    22  N    8.940539   8.721536   9.910840   9.918875   8.846597
    23  O    9.855181   9.750341  10.988336  11.065558  10.027903
    24  O    9.225882   8.816934   9.891063   9.724352   8.547429
    25  H    5.827077   6.185719   7.596299   8.157734   7.567764
    26  H    4.071717   4.912417   6.326459   7.248728   7.076010
    27  H    2.137080   3.441381   4.648516   5.865931   6.153272
    28  H    1.090129   2.186973   2.748622   4.147988   4.908964
    29  H    4.670181   3.429763   2.166620   1.092068   2.135580
    30  H    5.350958   3.916573   3.435623   2.150125   1.093787
    31  H    5.888407   4.651119   4.922796   4.092014   2.711460
    32  H    6.181219   5.367606   6.195346   5.831475   4.600181
    33  H    6.986742   6.509964   7.578187   7.456524   6.335494
    34  H    2.658039   2.757738   2.194550   3.442894   4.624589
    35  H    7.708310   7.803415   9.137823   9.440813   8.593122
    36  H    4.910920   4.142766   2.766976   2.744137   4.045708
    37  H    6.056841   5.761782   4.552979   4.944864   6.302019
    38  H    5.056195   5.087531   4.128993   4.939525   6.309301
                   11         12         13         14         15
    11  C    0.000000
    12  C    1.429771   0.000000
    13  C    2.442792   1.366630   0.000000
    14  C    2.869611   2.446391   1.436823   0.000000
    15  C    2.470776   2.823093   2.461871   1.439241   0.000000
    16  C    1.427660   2.462056   2.841997   2.498995   1.435764
    17  C    5.214914   4.326900   2.960326   2.510597   3.817922
    18  C    4.329050   5.758722   6.574720   6.309104   5.021467
    19  C    6.552855   5.670114   4.303714   3.787388   4.989594
    20  C    5.220454   6.626696   7.585170   7.468816   6.244363
    21  N    6.568215   7.981427   8.912891   8.723110   7.441637
    22  N    7.509649   6.440494   5.115498   4.928268   6.244976
    23  O    8.673919   7.644762   6.307021   6.007595   7.255605
    24  O    7.291249   6.073060   4.848460   5.014042   6.425137
    25  H    6.188974   5.874883   4.682015   3.440154   3.909967
    26  H    5.891565   6.159758   5.366636   3.930770   3.440311
    27  H    5.347344   6.165394   5.895130   4.654489   3.447001
    28  H    4.658462   5.897719   6.180054   5.364312   3.925329
    29  H    3.410381   4.618252   5.831622   6.183199   5.338861
    30  H    2.162132   2.713675   4.075527   4.909489   4.629259
    31  H    2.174798   1.093756   2.133375   3.436591   3.916815
    32  H    3.419036   2.116479   1.089500   2.193692   3.455792
    33  H    5.028470   3.909410   2.601483   2.727580   4.159168
    34  H    4.944045   6.350010   7.001367   6.528564   5.149994
    35  H    7.187242   6.454848   5.098446   4.331012   5.334236
    36  H    5.094240   6.428240   7.510737   7.587815   6.490382
    37  H    7.233957   8.621317   9.607746   9.486350   8.237878
    38  H    6.991512   8.420609   9.242275   8.902206   7.551185
                   16         17         18         19         20
    16  C    0.000000
    17  C    5.009272   0.000000
    18  C    3.833923   8.804515   0.000000
    19  C    6.266388   1.348173  10.010103   0.000000
    20  C    4.974274   9.976073   1.358752  11.212682   0.000000
    21  N    6.237542  11.222131   2.432287  12.429494   1.370499
    22  N    7.425555   2.429437  11.231993   1.452335  12.393039
    23  O    8.503223   3.500317  12.272666   2.272096  13.462517
    24  O    7.442149   2.738908  11.275509   2.316798  12.367619
    25  H    5.345443   2.699873   8.619571   2.671163   9.910612
    26  H    4.636554   4.637741   7.031780   5.025898   8.341986
    27  H    3.919843   6.334303   4.968704   7.067493   6.239066
    28  H    3.447428   7.616451   2.616956   8.624851   3.838467
    29  H    3.903474   8.609812   2.709295   9.937906   2.703859
    30  H    3.430809   7.030510   4.648808   8.376912   5.028543
    31  H    3.445298   4.968721   6.358005   6.272605   7.069443
    32  H    3.931259   2.631708   7.640127   3.879523   8.617273
    33  H    5.128204   1.091161   8.961255   2.047490  10.057668
    34  H    4.176000   8.960736   1.093681  10.092546   2.096243
    35  H    6.706137   2.194185  10.316429   1.087769  11.563285
    36  H    5.132239  10.081046   2.132897  11.360295   1.094980
    37  H    7.002909  11.985711   3.295582  13.207321   2.056621
    38  H    6.467779  11.367153   2.672655  12.521320   2.060112
                   21         22         23         24         25
    21  N    0.000000
    22  N   13.648068   0.000000
    23  O   14.691953   1.226561   0.000000
    24  O   13.667217   1.225418   2.171590   0.000000
    25  H   10.974946   4.082472   4.552478   4.967344   0.000000
    26  H    9.226277   6.471993   7.007354   7.232964   2.455628
    27  H    6.957550   8.509846   9.216691   9.067573   4.761985
    28  H    4.521645   9.992767  10.879828  10.305103   6.729010
    29  H    3.949321  10.919222  12.081585  10.667003   9.248499
    30  H    6.345930   9.140908  10.351248   8.699741   8.308254
    31  H    8.429787   6.844691   8.069672   6.291555   6.805508
    32  H    9.956048   4.420216   5.642892   3.962792   4.889198
    33  H   11.353553   2.532764   3.745962   2.314473   3.783435
    34  H    2.667655  11.383632  12.363298  11.536311   8.457707
    35  H   12.722256   2.109757   2.386167   3.216979   2.169027
    36  H    2.068236  12.462535  13.573993  12.337247  10.281041
    37  H    1.012025  14.402803  15.460732  14.386550  11.803730
    38  H    1.013951  13.795649  14.793041  13.900734  10.882808
                   26         27         28         29         30
    26  H    0.000000
    27  H    2.470440   0.000000
    28  H    4.749144   2.440129   0.000000
    29  H    8.303207   6.798202   4.867619   0.000000
    30  H    8.029460   7.228567   5.987549   2.452121   0.000000
    31  H    7.236414   7.238376   6.819447   4.768549   2.479552
    32  H    6.010825   6.829774   7.254352   6.730589   4.750373
    33  H    5.587792   7.062760   8.073958   8.429849   6.608220
    34  H    6.642776   4.397778   1.986943   3.750863   5.563679
    35  H    4.624620   6.883052   8.687121  10.508352   9.126044
    36  H    8.906982   6.958890   4.648564   2.156954   4.504677
    37  H   10.078170   7.815480   5.395330   4.408599   6.814613
    38  H    8.974682   6.605952   4.226791   4.702585   7.028104
                   31         32         33         34         35
    31  H    0.000000
    32  H    2.432076   0.000000
    33  H    4.343156   1.911316   0.000000
    34  H    7.060579   8.085775   9.237898   0.000000
    35  H    7.153571   4.822454   3.080211  10.291093   0.000000
    36  H    6.720641   8.487920  10.052550   3.079773  11.798360
    37  H    8.997107  10.630451  12.079750   3.624993  13.523589
    38  H    8.967655  10.311015  11.589960   2.476941  12.731533
                   36         37         38
    36  H    0.000000
    37  H    2.325721   0.000000
    38  H    2.971883   1.708742   0.000000
 Stoichiometry    C20H14N2O2
 Framework group  C1[X(C20H14N2O2)]
 Deg. of freedom   108
 Full point group                 C1      NOp   1
 Largest Abelian subgroup         C1      NOp   1
 Largest concise Abelian subgroup C1      NOp   1
                         Standard orientation:                         
 ---------------------------------------------------------------------
 Center     Atomic      Atomic             Coordinates (Angstroms)
 Number     Number       Type             X           Y           Z
 ---------------------------------------------------------------------
      1          6           0       -2.470076    0.512615    0.000680
      2          6           0       -2.388163    1.923727    0.001918
      3          6           0       -1.175296    2.586384   -0.007109
      4          6           0        0.039501    1.867681   -0.020649
      5          6           0        1.306855    2.531181   -0.018751
      6          6           0        2.478695    1.827461   -0.034670
      7          6           0        2.502935    0.392412   -0.062743
      8          6           0        3.726732   -0.353002   -0.091208
      9          6           0        3.638596   -1.764120   -0.093155
     10          6           0        2.423694   -2.429327   -0.056140
     11          6           0        1.206356   -1.721636   -0.037406
     12          6           0       -0.060692   -2.383912   -0.022400
     13          6           0       -1.236057   -1.686708   -0.012269
     14          6           0       -1.257074   -0.250038   -0.013230
     15          6           0        0.006774    0.438371   -0.027180
     16          6           0        1.241331   -0.294422   -0.044523
     17          6           0       -3.765478   -0.148905    0.014584
     18          6           0        5.025653    0.314304   -0.130125
     19          6           0       -4.982481    0.430940    0.030504
     20          6           0        6.207722   -0.249558    0.231784
     21          7           0        7.446314    0.323714    0.107219
     22          7           0       -6.183136   -0.386088    0.043593
     23          8           0       -7.245243    0.227210    0.059213
     24          8           0       -6.083605   -1.607447    0.038324
     25          1           0       -3.307857    2.511902    0.011957
     26          1           0       -1.147456    3.679189   -0.002805
     27          1           0        1.322368    3.624299    0.002664
     28          1           0        3.419756    2.377338   -0.014171
     29          1           0        4.555418   -2.353707   -0.159750
     30          1           0        2.402024   -3.522859   -0.065540
     31          1           0       -0.076691   -3.477547   -0.019731
     32          1           0       -2.172413   -2.243604   -0.001681
     33          1           0       -3.798702   -1.239558    0.012577
     34          1           0        5.055134    1.349832   -0.480768
     35          1           0       -5.221987    1.491999    0.036107
     36          1           0        6.233951   -1.263525    0.644291
     37          1           0        8.200759   -0.022994    0.685838
     38          1           0        7.507087    1.307059   -0.132439
 ---------------------------------------------------------------------
 Rotational constants (GHZ):           0.7473963           0.0998005           0.0881259
 Leave Link  202 at Wed Aug 13 16:11:22 2025, MaxMem=  1342177280 cpu:               0.0 elap:               0.0
 (Enter /opt/bwhpc/common/chem/gaussian/g16.C.01/x86_64-Intel-avx2-source/g16/l301.exe)
 Standard basis: CC-pVDZ (5D, 7F)
 Ernie: Thresh=  0.10000D-02 Tol=  0.10000D-05 Strict=F.
 Ernie:  48 primitive shells out of 598 were deleted.
 There are   430 symmetry adapted cartesian basis functions of A   symmetry.
 There are   406 symmetry adapted basis functions of A   symmetry.
   406 basis functions,   890 primitive gaussians,   430 cartesian basis functions
    82 alpha electrons       82 beta electrons
       nuclear repulsion energy      1790.7379082885 Hartrees.
 IExCor=    0 DFT=F Ex=HF Corr=None ExCW=0 ScaHFX=  1.000000
 ScaDFX=  1.000000  1.000000  1.000000  1.000000 ScalE2=  1.000000  1.000000
 IRadAn=      5 IRanWt=     -1 IRanGd=            0 ICorTp=0 IEmpDi=  4
 NAtoms=   38 NActive=   38 NUniq=   38 SFac= 1.00D+00 NAtFMM=   60 NAOKFM=F Big=F
 Integral buffers will be    131072 words long.
 Raffenetti 1 integral format.
 Two-electron integral symmetry is turned on.
 Leave Link  301 at Wed Aug 13 16:11:22 2025, MaxMem=  1342177280 cpu:               0.4 elap:               0.1
 (Enter /opt/bwhpc/common/chem/gaussian/g16.C.01/x86_64-Intel-avx2-source/g16/l302.exe)
 NPDir=0 NMtPBC=     1 NCelOv=     1 NCel=       1 NClECP=     1 NCelD=      1
         NCelK=      1 NCelE2=     1 NClLst=     1 CellRange=     0.0.
 One-electron integrals computed using PRISM.
 One-electron integral symmetry used in STVInt
 NBasis=   406 RedAO= T EigKep=  6.94D-05  NBF=   406
 NBsUse=   406 1.00D-06 EigRej= -1.00D+00 NBFU=   406
 Leave Link  302 at Wed Aug 13 16:11:22 2025, MaxMem=  1342177280 cpu:               3.2 elap:               0.4
 (Enter /opt/bwhpc/common/chem/gaussian/g16.C.01/x86_64-Intel-avx2-source/g16/l303.exe)
 DipDrv:  MaxL=1.
 Leave Link  303 at Wed Aug 13 16:11:22 2025, MaxMem=  1342177280 cpu:               0.7 elap:               0.1
 (Enter /opt/bwhpc/common/chem/gaussian/g16.C.01/x86_64-Intel-avx2-source/g16/l401.exe)
 ExpMin= 1.22D-01 ExpMax= 1.17D+04 ExpMxC= 4.01D+02 IAcc=3 IRadAn=         5 AccDes= 0.00D+00
 Harris functional with IExCor=  205 and IRadAn=       5 diagonalized for initial guess.
 HarFok:  IExCor=  205 AccDes= 0.00D+00 IRadAn=         5 IDoV= 1 UseB2=F ITyADJ=14
 ICtDFT=  3500011 ScaDFX=  1.000000  1.000000  1.000000  1.000000
 FoFCou: FMM=F IPFlag=           0 FMFlag=      100000 FMFlg1=           0
         NFxFlg=           0 DoJE=T BraDBF=F KetDBF=T FulRan=T
         wScrn=  0.000000 ICntrl=       500 IOpCl=  0 I1Cent=   200000004 NGrid=           0
         NMat0=    1 NMatS0=      1 NMatT0=    0 NMatD0=    1 NMtDS0=    0 NMtDT0=    0
 Petite list used in FoFCou.
 Harris En= -1025.22515943791    
 JPrj=0 DoOrth=F DoCkMO=F.
 Leave Link  401 at Wed Aug 13 16:11:24 2025, MaxMem=  1342177280 cpu:              16.6 elap:               2.1
 (Enter /opt/bwhpc/common/chem/gaussian/g16.C.01/x86_64-Intel-avx2-source/g16/l502.exe)
 Integral symmetry usage will be decided dynamically.
 Closed shell SCF:
 Using DIIS extrapolation, IDIIS=  1040.
 NGot=  1342177280 LenX=  1341798726 LenY=  1341613385
 Requested convergence on RMS density matrix=1.00D-08 within 128 cycles.
 Requested convergence on MAX density matrix=1.00D-06.
 Requested convergence on             energy=1.00D-06.
 No special actions if energy rises.
 Fock matrices will be formed incrementally for  20 cycles.
 Integral accuracy reduced to 1.0D-05 until final iterations.

 Cycle   1  Pass 0  IDiag  1:
 FoFJK:  IHMeth= 1 ICntrl=       0 DoSepK=F KAlg= 0 I1Cent=           0 FoldK=F
 IRaf= 750000000 NMat=       1 IRICut=       1 DoRegI=T DoRafI=F ISym2E= 0 IDoP0=0 IntGTp=1.
 FoFCou: FMM=F IPFlag=           0 FMFlag=      100000 FMFlg1=           0
         NFxFlg=           0 DoJE=F BraDBF=F KetDBF=F FulRan=T
         wScrn=  0.000000 ICntrl=         0 IOpCl=  0 I1Cent=           0 NGrid=           0
         NMat0=    1 NMatS0=      1 NMatT0=    0 NMatD0=    1 NMtDS0=    0 NMtDT0=    0
 Symmetry not used in FoFCou.
 E= -1023.30264929360    
 DIIS: error= 5.13D-02 at cycle   1 NSaved=   1.
 NSaved= 1 IEnMin= 1 EnMin= -1023.30264929360     IErMin= 1 ErrMin= 5.13D-02
 ErrMax= 5.13D-02  0.00D+00 EMaxC= 1.00D-01 BMatC= 9.76D-01 BMatP= 9.76D-01
 IDIUse=3 WtCom= 4.87D-01 WtEn= 5.13D-01
 Coeff-Com:  0.100D+01
 Coeff-En:   0.100D+01
 Coeff:      0.100D+01
 Gap=     0.243 Goal=   None    Shift=    0.000
 GapD=    0.243 DampG=1.000 DampE=0.500 DampFc=0.5000 IDamp=-1.
 Damping current iteration by 5.00D-01
 RMSDP=8.06D-03 MaxDP=2.84D-01              OVMax= 1.62D-01

 Cycle   2  Pass 0  IDiag  1:
 RMSU=  3.45D-03    CP:  8.89D-01
 E= -1023.71351723734     Delta-E=       -0.410867943740 Rises=F Damp=T
 DIIS: error= 1.83D-02 at cycle   2 NSaved=   2.
 NSaved= 2 IEnMin= 2 EnMin= -1023.71351723734     IErMin= 2 ErrMin= 1.83D-02
 ErrMax= 1.83D-02  0.00D+00 EMaxC= 1.00D-01 BMatC= 1.88D-01 BMatP= 9.76D-01
 IDIUse=3 WtCom= 8.17D-01 WtEn= 1.83D-01
 Coeff-Com: -0.544D+00 0.154D+01
 Coeff-En:   0.000D+00 0.100D+01
 Coeff:     -0.445D+00 0.144D+01
 Gap=     0.309 Goal=   None    Shift=    0.000
 RMSDP=3.95D-03 MaxDP=1.42D-01 DE=-4.11D-01 OVMax= 1.02D-01

 Cycle   3  Pass 0  IDiag  1:
 RMSU=  1.04D-03    CP:  7.79D-01  1.93D+00
 E= -1024.08775501501     Delta-E=       -0.374237777673 Rises=F Damp=F
 DIIS: error= 1.35D-02 at cycle   3 NSaved=   3.
 NSaved= 3 IEnMin= 3 EnMin= -1024.08775501501     IErMin= 3 ErrMin= 1.35D-02
 ErrMax= 1.35D-02  0.00D+00 EMaxC= 1.00D-01 BMatC= 1.34D-02 BMatP= 1.88D-01
 IDIUse=3 WtCom= 8.65D-01 WtEn= 1.35D-01
 Coeff-Com: -0.191D+00 0.373D+00 0.818D+00
 Coeff-En:   0.000D+00 0.000D+00 0.100D+01
 Coeff:     -0.165D+00 0.323D+00 0.842D+00
 Gap=     0.257 Goal=   None    Shift=    0.000
 RMSDP=3.19D-04 MaxDP=2.10D-02 DE=-3.74D-01 OVMax= 2.88D-02

 Cycle   4  Pass 0  IDiag  1:
 RMSU=  2.86D-04    CP:  7.76D-01  1.96D+00  9.64D-01
 E= -1024.09841400014     Delta-E=       -0.010658985128 Rises=F Damp=F
 DIIS: error= 2.82D-03 at cycle   4 NSaved=   4.
 NSaved= 4 IEnMin= 4 EnMin= -1024.09841400014     IErMin= 4 ErrMin= 2.82D-03
 ErrMax= 2.82D-03  0.00D+00 EMaxC= 1.00D-01 BMatC= 1.49D-03 BMatP= 1.34D-02
 IDIUse=3 WtCom= 9.72D-01 WtEn= 2.82D-02
 Coeff-Com: -0.714D-02-0.133D-01 0.243D+00 0.777D+00
 Coeff-En:   0.000D+00 0.000D+00 0.000D+00 0.100D+01
 Coeff:     -0.694D-02-0.129D-01 0.236D+00 0.784D+00
 Gap=     0.260 Goal=   None    Shift=    0.000
 RMSDP=1.26D-04 MaxDP=6.94D-03 DE=-1.07D-02 OVMax= 1.06D-02

 Cycle   5  Pass 0  IDiag  1:
 RMSU=  9.21D-05    CP:  7.74D-01  1.97D+00  1.03D+00  9.70D-01
 E= -1024.10009914604     Delta-E=       -0.001685145894 Rises=F Damp=F
 DIIS: error= 5.33D-04 at cycle   5 NSaved=   5.
 NSaved= 5 IEnMin= 5 EnMin= -1024.10009914604     IErMin= 5 ErrMin= 5.33D-04
 ErrMax= 5.33D-04  0.00D+00 EMaxC= 1.00D-01 BMatC= 8.06D-05 BMatP= 1.49D-03
 IDIUse=3 WtCom= 9.95D-01 WtEn= 5.33D-03
 Coeff-Com:  0.114D-01-0.190D-01-0.908D-01-0.869D-01 0.119D+01
 Coeff-En:   0.000D+00 0.000D+00 0.000D+00 0.000D+00 0.100D+01
 Coeff:      0.114D-01-0.189D-01-0.903D-01-0.864D-01 0.118D+01
 Gap=     0.264 Goal=   None    Shift=    0.000
 RMSDP=5.92D-05 MaxDP=2.24D-03 DE=-1.69D-03 OVMax= 7.75D-03

 Cycle   6  Pass 0  IDiag  1:
 RMSU=  2.99D-05    CP:  7.73D-01  1.98D+00  1.05D+00  1.08D+00  1.33D+00
 E= -1024.10038566312     Delta-E=       -0.000286517082 Rises=F Damp=F
 DIIS: error= 1.82D-04 at cycle   6 NSaved=   6.
 NSaved= 6 IEnMin= 6 EnMin= -1024.10038566312     IErMin= 6 ErrMin= 1.82D-04
 ErrMax= 1.82D-04  0.00D+00 EMaxC= 1.00D-01 BMatC= 1.66D-05 BMatP= 8.06D-05
 IDIUse=3 WtCom= 9.98D-01 WtEn= 1.82D-03
 Coeff-Com:  0.325D-02-0.263D-02-0.483D-01-0.110D+00 0.245D+00 0.913D+00
 Coeff-En:   0.000D+00 0.000D+00 0.000D+00 0.000D+00 0.000D+00 0.100D+01
 Coeff:      0.324D-02-0.262D-02-0.482D-01-0.110D+00 0.244D+00 0.913D+00
 Gap=     0.265 Goal=   None    Shift=    0.000
 RMSDP=2.31D-05 MaxDP=8.91D-04 DE=-2.87D-04 OVMax= 3.62D-03

 Cycle   7  Pass 0  IDiag  1:
 RMSU=  1.39D-05    CP:  7.73D-01  1.98D+00  1.06D+00  1.11D+00  1.48D+00
                    CP:  1.23D+00
 E= -1024.10043569723     Delta-E=       -0.000050034113 Rises=F Damp=F
 DIIS: error= 9.14D-05 at cycle   7 NSaved=   7.
 NSaved= 7 IEnMin= 7 EnMin= -1024.10043569723     IErMin= 7 ErrMin= 9.14D-05
 ErrMax= 9.14D-05  0.00D+00 EMaxC= 1.00D-01 BMatC= 3.64D-06 BMatP= 1.66D-05
 IDIUse=1 WtCom= 1.00D+00 WtEn= 0.00D+00
 Coeff-Com: -0.144D-02 0.296D-02 0.760D-02-0.515D-02-0.178D+00 0.192D+00
 Coeff-Com:  0.982D+00
 Coeff:     -0.144D-02 0.296D-02 0.760D-02-0.515D-02-0.178D+00 0.192D+00
 Coeff:      0.982D+00
 Gap=     0.266 Goal=   None    Shift=    0.000
 RMSDP=1.15D-05 MaxDP=5.28D-04 DE=-5.00D-05 OVMax= 1.72D-03

 Cycle   8  Pass 0  IDiag  1:
 RMSU=  5.86D-06    CP:  7.73D-01  1.98D+00  1.06D+00  1.12D+00  1.53D+00
                    CP:  1.50D+00  1.19D+00
 E= -1024.10044468463     Delta-E=       -0.000008987399 Rises=F Damp=F
 DIIS: error= 3.31D-05 at cycle   8 NSaved=   8.
 NSaved= 8 IEnMin= 8 EnMin= -1024.10044468463     IErMin= 8 ErrMin= 3.31D-05
 ErrMax= 3.31D-05  0.00D+00 EMaxC= 1.00D-01 BMatC= 6.82D-07 BMatP= 3.64D-06
 IDIUse=1 WtCom= 1.00D+00 WtEn= 0.00D+00
 Coeff-Com: -0.117D-02 0.150D-02 0.131D-01 0.235D-01-0.940D-01-0.154D+00
 Coeff-Com:  0.185D+00 0.103D+01
 Coeff:     -0.117D-02 0.150D-02 0.131D-01 0.235D-01-0.940D-01-0.154D+00
 Coeff:      0.185D+00 0.103D+01
 Gap=     0.266 Goal=   None    Shift=    0.000
 RMSDP=6.28D-06 MaxDP=2.62D-04 DE=-8.99D-06 OVMax= 9.30D-04

 Initial convergence to 1.0D-05 achieved.  Increase integral accuracy.
 Cycle   9  Pass 1  IDiag  1:
 E= -1024.10041108816     Delta-E=        0.000033596468 Rises=F Damp=F
 DIIS: error= 2.16D-04 at cycle   1 NSaved=   1.
 NSaved= 1 IEnMin= 1 EnMin= -1024.10041108816     IErMin= 1 ErrMin= 2.16D-04
 ErrMax= 2.16D-04  0.00D+00 EMaxC= 1.00D-01 BMatC= 1.01D-05 BMatP= 1.01D-05
 IDIUse=3 WtCom= 9.98D-01 WtEn= 2.16D-03
 Coeff-Com:  0.100D+01
 Coeff-En:   0.100D+01
 Coeff:      0.100D+01
 Gap=     0.266 Goal=   None    Shift=    0.000
 RMSDP=6.28D-06 MaxDP=2.62D-04 DE= 3.36D-05 OVMax= 3.37D-04

 Cycle  10  Pass 1  IDiag  1:
 RMSU=  2.36D-04    CP:  1.00D+00
 E= -1024.10041771692     Delta-E=       -0.000006628754 Rises=F Damp=F
 DIIS: error= 1.14D-05 at cycle   2 NSaved=   2.
 NSaved= 2 IEnMin= 2 EnMin= -1024.10041771692     IErMin= 2 ErrMin= 1.14D-05
 ErrMax= 1.14D-05  0.00D+00 EMaxC= 1.00D-01 BMatC= 6.34D-08 BMatP= 1.01D-05
 IDIUse=1 WtCom= 1.00D+00 WtEn= 0.00D+00
 Coeff-Com: -0.256D-01 0.103D+01
 Coeff:     -0.256D-01 0.103D+01
 Gap=     0.266 Goal=   None    Shift=    0.000
 RMSDP=9.81D-06 MaxDP=4.99D-04 DE=-6.63D-06 OVMax= 2.10D-04

 Cycle  11  Pass 1  IDiag  1:
 RMSU=  2.80D-06    CP:  1.00D+00  1.04D+00
 E= -1024.10041792959     Delta-E=       -0.000000212671 Rises=F Damp=F
 DIIS: error= 1.16D-05 at cycle   3 NSaved=   3.
 NSaved= 3 IEnMin= 3 EnMin= -1024.10041792959     IErMin= 2 ErrMin= 1.14D-05
 ErrMax= 1.16D-05  0.00D+00 EMaxC= 1.00D-01 BMatC= 3.44D-08 BMatP= 6.34D-08
 IDIUse=1 WtCom= 1.00D+00 WtEn= 0.00D+00
 Coeff-Com: -0.118D-01 0.344D+00 0.668D+00
 Coeff:     -0.118D-01 0.344D+00 0.668D+00
 Gap=     0.266 Goal=   None    Shift=    0.000
 RMSDP=6.62D-07 MaxDP=2.59D-05 DE=-2.13D-07 OVMax= 9.21D-05

 Cycle  12  Pass 1  IDiag  1:
 RMSU=  5.79D-07    CP:  1.00D+00  1.04D+00  1.09D+00
 E= -1024.10041801009     Delta-E=       -0.000000080505 Rises=F Damp=F
 DIIS: error= 7.27D-06 at cycle   4 NSaved=   4.
 NSaved= 4 IEnMin= 4 EnMin= -1024.10041801009     IErMin= 4 ErrMin= 7.27D-06
 ErrMax= 7.27D-06  0.00D+00 EMaxC= 1.00D-01 BMatC= 1.33D-08 BMatP= 3.44D-08
 IDIUse=1 WtCom= 1.00D+00 WtEn= 0.00D+00
 Coeff-Com:  0.200D-01-0.759D+00-0.276D+00 0.202D+01
 Coeff:      0.200D-01-0.759D+00-0.276D+00 0.202D+01
 Gap=     0.266 Goal=   None    Shift=    0.000
 RMSDP=1.60D-06 MaxDP=7.35D-05 DE=-8.05D-08 OVMax= 2.89D-04

 Cycle  13  Pass 1  IDiag  1:
 RMSU=  8.56D-07    CP:  1.00D+00  1.04D+00  1.38D+00  2.82D+00
 E= -1024.10041813510     Delta-E=       -0.000000125005 Rises=F Damp=F
 DIIS: error= 2.71D-06 at cycle   5 NSaved=   5.
 NSaved= 5 IEnMin= 5 EnMin= -1024.10041813510     IErMin= 5 ErrMin= 2.71D-06
 ErrMax= 2.71D-06  0.00D+00 EMaxC= 1.00D-01 BMatC= 1.76D-09 BMatP= 1.33D-08
 IDIUse=1 WtCom= 1.00D+00 WtEn= 0.00D+00
 Coeff-Com:  0.331D-02-0.105D+00-0.167D+00 0.104D+00 0.116D+01
 Coeff:      0.331D-02-0.105D+00-0.167D+00 0.104D+00 0.116D+01
 Gap=     0.266 Goal=   None    Shift=    0.000
 RMSDP=5.97D-07 MaxDP=2.52D-05 DE=-1.25D-07 OVMax= 1.13D-04

 Cycle  14  Pass 1  IDiag  1:
 RMSU=  3.56D-07    CP:  1.00D+00  1.04D+00  1.42D+00  3.00D+00  1.40D+00
 E= -1024.10041814981     Delta-E=       -0.000000014710 Rises=F Damp=F
 DIIS: error= 8.37D-07 at cycle   6 NSaved=   6.
 NSaved= 6 IEnMin= 6 EnMin= -1024.10041814981     IErMin= 6 ErrMin= 8.37D-07
 ErrMax= 8.37D-07  0.00D+00 EMaxC= 1.00D-01 BMatC= 3.58D-10 BMatP= 1.76D-09
 IDIUse=1 WtCom= 1.00D+00 WtEn= 0.00D+00
 Coeff-Com: -0.293D-02 0.115D+00 0.186D-01-0.333D+00 0.227D+00 0.975D+00
 Coeff:     -0.293D-02 0.115D+00 0.186D-01-0.333D+00 0.227D+00 0.975D+00
 Gap=     0.266 Goal=   None    Shift=    0.000
 RMSDP=1.87D-07 MaxDP=7.40D-06 DE=-1.47D-08 OVMax= 3.56D-05

 Cycle  15  Pass 1  IDiag  1:
 RMSU=  7.65D-08    CP:  1.00D+00  1.04D+00  1.42D+00  3.00D+00  1.52D+00
                    CP:  1.34D+00
 E= -1024.10041815165     Delta-E=       -0.000000001847 Rises=F Damp=F
 DIIS: error= 4.20D-07 at cycle   7 NSaved=   7.
 NSaved= 7 IEnMin= 7 EnMin= -1024.10041815165     IErMin= 7 ErrMin= 4.20D-07
 ErrMax= 4.20D-07  0.00D+00 EMaxC= 1.00D-01 BMatC= 9.04D-11 BMatP= 3.58D-10
 IDIUse=1 WtCom= 1.00D+00 WtEn= 0.00D+00
 Coeff-Com: -0.433D-03 0.102D-01 0.461D-01 0.219D-01-0.338D+00-0.203D+00
 Coeff-Com:  0.146D+01
 Coeff:     -0.433D-03 0.102D-01 0.461D-01 0.219D-01-0.338D+00-0.203D+00
 Coeff:      0.146D+01
 Gap=     0.266 Goal=   None    Shift=    0.000
 RMSDP=1.10D-07 MaxDP=5.72D-06 DE=-1.85D-09 OVMax= 2.18D-05

 Cycle  16  Pass 1  IDiag  1:
 RMSU=  5.57D-08    CP:  1.00D+00  1.04D+00  1.42D+00  3.00D+00  1.57D+00
                    CP:  1.51D+00  1.81D+00
 E= -1024.10041815228     Delta-E=       -0.000000000629 Rises=F Damp=F
 DIIS: error= 2.09D-07 at cycle   8 NSaved=   8.
 NSaved= 8 IEnMin= 8 EnMin= -1024.10041815228     IErMin= 8 ErrMin= 2.09D-07
 ErrMax= 2.09D-07  0.00D+00 EMaxC= 1.00D-01 BMatC= 1.89D-11 BMatP= 9.04D-11
 IDIUse=1 WtCom= 1.00D+00 WtEn= 0.00D+00
 Coeff-Com:  0.467D-03-0.207D-01 0.131D-01 0.728D-01-0.162D+00-0.275D+00
 Coeff-Com:  0.515D+00 0.856D+00
 Coeff:      0.467D-03-0.207D-01 0.131D-01 0.728D-01-0.162D+00-0.275D+00
 Coeff:      0.515D+00 0.856D+00
 Gap=     0.266 Goal=   None    Shift=    0.000
 RMSDP=4.12D-08 MaxDP=1.94D-06 DE=-6.29D-10 OVMax= 8.37D-06

 Cycle  17  Pass 1  IDiag  1:
 RMSU=  1.42D-08    CP:  1.00D+00  1.04D+00  1.43D+00  3.00D+00  1.58D+00
                    CP:  1.56D+00  2.12D+00  1.24D+00
 E= -1024.10041815235     Delta-E=       -0.000000000064 Rises=F Damp=F
 DIIS: error= 5.12D-08 at cycle   9 NSaved=   9.
 NSaved= 9 IEnMin= 9 EnMin= -1024.10041815235     IErMin= 9 ErrMin= 5.12D-08
 ErrMax= 5.12D-08  0.00D+00 EMaxC= 1.00D-01 BMatC= 2.04D-12 BMatP= 1.89D-11
 IDIUse=1 WtCom= 1.00D+00 WtEn= 0.00D+00
 Coeff-Com: -0.459D-04 0.308D-02-0.634D-02-0.204D-01 0.733D-01 0.803D-01
 Coeff-Com: -0.296D+00-0.127D+00 0.129D+01
 Coeff:     -0.459D-04 0.308D-02-0.634D-02-0.204D-01 0.733D-01 0.803D-01
 Coeff:     -0.296D+00-0.127D+00 0.129D+01
 Gap=     0.266 Goal=   None    Shift=    0.000
 RMSDP=1.52D-08 MaxDP=7.57D-07 DE=-6.37D-11 OVMax= 2.60D-06

 Cycle  18  Pass 1  IDiag  1:
 RMSU=  7.68D-09    CP:  1.00D+00  1.04D+00  1.43D+00  3.00D+00  1.59D+00
                    CP:  1.57D+00  2.19D+00  1.38D+00  1.45D+00
 E= -1024.10041815237     Delta-E=       -0.000000000019 Rises=F Damp=F
 DIIS: error= 2.06D-08 at cycle  10 NSaved=  10.
 NSaved=10 IEnMin=10 EnMin= -1024.10041815237     IErMin=10 ErrMin= 2.06D-08
 ErrMax= 2.06D-08  0.00D+00 EMaxC= 1.00D-01 BMatC= 4.42D-13 BMatP= 2.04D-12
 IDIUse=1 WtCom= 1.00D+00 WtEn= 0.00D+00
 Coeff-Com: -0.110D-03 0.512D-02-0.354D-02-0.207D-01 0.521D-01 0.780D-01
 Coeff-Com: -0.185D+00-0.206D+00 0.315D+00 0.965D+00
 Coeff:     -0.110D-03 0.512D-02-0.354D-02-0.207D-01 0.521D-01 0.780D-01
 Coeff:     -0.185D+00-0.206D+00 0.315D+00 0.965D+00
 Gap=     0.266 Goal=   None    Shift=    0.000
 RMSDP=5.36D-09 MaxDP=2.00D-07 DE=-1.91D-11 OVMax= 7.12D-07

 SCF Done:  E(RHF) =  -1024.10041815     A.U. after   18 cycles
            NFock= 18  Conv=0.54D-08     -V/T= 2.0013
 KE= 1.022818158173D+03 PE=-5.972776793151D+03 EE= 2.135120308537D+03
 Leave Link  502 at Wed Aug 13 16:12:37 2025, MaxMem=  1342177280 cpu:             581.5 elap:              72.9
 (Enter /opt/bwhpc/common/chem/gaussian/g16.C.01/x86_64-Intel-avx2-source/g16/l801.exe)
 ExpMin= 1.22D-01 ExpMax= 1.17D+04 ExpMxC= 4.01D+02 IAcc=3 IRadAn=         5 AccDes= 0.00D+00
 HarFok:  IExCor=  205 AccDes= 0.00D+00 IRadAn=         5 IDoV=-2 UseB2=F ITyADJ=14
 ICtDFT= 12500011 ScaDFX=  1.000000  1.000000  1.000000  1.000000
 GSVD:  LWork=        -768 too small for GESVD, short by        3240 words or        3240 for optimal perf.
 Largest valence mixing into a core orbital is  1.07D-04
 Largest core mixing into a valence orbital is  6.21D-05
 Range of M.O.s used for correlation:    25   406
 NBasis=   406 NAE=    82 NBE=    82 NFC=    24 NFV=     0
 NROrb=    382 NOA=    58 NOB=    58 NVA=   324 NVB=   324

 **** Warning!!: The largest alpha MO coefficient is  0.21891759D+02

 Leave Link  801 at Wed Aug 13 16:12:38 2025, MaxMem=  1342177280 cpu:               1.7 elap:               0.2
 (Enter /opt/bwhpc/common/chem/gaussian/g16.C.01/x86_64-Intel-avx2-source/g16/l906.exe)
 Frozen-core derivative calculation, NFC=  24 NFV=   0.
 FulOut=F Deriv=T AODrv=F NAtomX=    38
   MMem=           0  MDisk=          58 MDiskD=          58
  W3Min=    14315560 MinDsk=    37897525 NBas6D=         430
 NBas2D=       93211    NTT=       92665    LW2=     3300000
    MDV=  1339845881 MDiskM=       43212 NBas2p=       70408
 Disk-based method using ON**2 memory for 58 occupieds at a time.
 Permanent disk used for amplitudes=   879633270 words.
 Estimated scratch disk usage=  6730000912 words.
 IMap=   1   2   3   4   5   6   7   8   9  10  11  12  13  14  15  16  17  18  19  20
 IMap=  21  22  23  24  25  26  27  28  29  30  31  32  33  34  35  36  37  38  39  40
 IMap=  41  42  43  44  45  46  47  48  49  50  51  52  53  54  55  56  57  58  59  60
 IMap=  61  62  63  64  65  66  67  68  69  70  71  72  73  74  75  76  77  78  79  80
 IMap=  81  82
 Actual    scratch disk usage=  6127659024 words.
 JobTyp=1 Pass  1:  I=  25 to  82 NPSUse=  8 ParTrn=T ParDer=T DoDerP=T.
 Spin components of T(2) and E(2):
     alpha-alpha T2 =       0.1768735481D+00 E2=     -0.4579301889D+00
     alpha-beta  T2 =       0.8740865363D+00 E2=     -0.2392457388D+01
     beta-beta   T2 =       0.1768735481D+00 E2=     -0.4579301889D+00
 The integrals were generated   1 times.
 ANorm=    0.1492592923D+01
 E2 =    -0.3308317766D+01 EUMP2 =    -0.10274087359183D+04
 Leave Link  906 at Wed Aug 13 17:13:29 2025, MaxMem=  1342177280 cpu:           29117.8 elap:            3651.4
 (Enter /opt/bwhpc/common/chem/gaussian/g16.C.01/x86_64-Intel-avx2-source/g16/l1002.exe)
 Minotr:  Closed shell wavefunction.
          Frozen-core window.
          Direct CPHF calculation.
          Differentiating once with respect to electric field.
                with respect to dipole field.
          Electric field/nuclear overlap derivatives assumed to be zero.
          Requested convergence is 1.0D-08 RMS, and 1.0D-07 maximum.
          Secondary convergence is 1.0D-12 RMS, and 1.0D-12 maximum.
          NewPWx=F KeepS1=T KeepF1=T KeepIn=T MapXYZ=F SortEE=F KeepMc=T.
 Two-electron integral symmetry used by symmetrizing perturbed Fock matrices.
          MDV=    1342177280 using IRadAn=       4.
          Solving linear equations simultaneously, MaxMat=     384.
          There are     3 degrees of freedom in the 1st order CPHF.  IDoFFX=0 NUNeed=     3.
      3 vectors produced by pass  0 Test12= 8.86D-13 3.33D-08 XBig12= 2.57D+02 1.20D+01.
 AX will form     3 AO Fock derivatives at one time.
 FoFJK:  IHMeth= 1 ICntrl=       0 DoSepK=F KAlg= 0 I1Cent=           0 FoldK=F
 IRaf= 750000000 NMat=       3 IRICut=       1 DoRegI=T DoRafI=F ISym2E=-1 IDoP0=0 IntGTp=1.
 FoFCou: FMM=F IPFlag=           0 FMFlag=      100000 FMFlg1=           0
         NFxFlg=           0 DoJE=F BraDBF=F KetDBF=F FulRan=T
         wScrn=  0.000000 ICntrl=         0 IOpCl=  0 I1Cent=           0 NGrid=           0
         NMat0=    3 NMatS0=      3 NMatT0=    0 NMatD0=    3 NMtDS0=    0 NMtDT0=    0
 Petite list used in FoFCou.
      3 vectors produced by pass  1 Test12= 8.86D-13 3.33D-08 XBig12= 2.55D+01 1.77D+00.
      3 vectors produced by pass  2 Test12= 8.86D-13 3.33D-08 XBig12= 5.74D+00 5.75D-01.
      3 vectors produced by pass  3 Test12= 8.86D-13 3.33D-08 XBig12= 8.79D-01 2.19D-01.
      3 vectors produced by pass  4 Test12= 8.86D-13 3.33D-08 XBig12= 1.69D-01 8.85D-02.
      3 vectors produced by pass  5 Test12= 8.86D-13 3.33D-08 XBig12= 1.31D-02 1.83D-02.
      3 vectors produced by pass  6 Test12= 8.86D-13 3.33D-08 XBig12= 2.17D-03 9.86D-03.
      3 vectors produced by pass  7 Test12= 8.86D-13 3.33D-08 XBig12= 3.07D-04 3.40D-03.
      3 vectors produced by pass  8 Test12= 8.86D-13 3.33D-08 XBig12= 5.00D-05 1.21D-03.
      3 vectors produced by pass  9 Test12= 8.86D-13 3.33D-08 XBig12= 5.64D-06 3.06D-04.
      3 vectors produced by pass 10 Test12= 8.86D-13 3.33D-08 XBig12= 4.92D-07 1.11D-04.
      3 vectors produced by pass 11 Test12= 8.86D-13 3.33D-08 XBig12= 5.92D-08 3.68D-05.
      3 vectors produced by pass 12 Test12= 8.86D-13 3.33D-08 XBig12= 5.19D-09 1.54D-05.
      3 vectors produced by pass 13 Test12= 8.86D-13 3.33D-08 XBig12= 4.20D-10 3.95D-06.
      3 vectors produced by pass 14 Test12= 8.86D-13 3.33D-08 XBig12= 6.13D-11 1.97D-06.
      3 vectors produced by pass 15 Test12= 8.86D-13 3.33D-08 XBig12= 6.32D-12 5.67D-07.
      2 vectors produced by pass 16 Test12= 8.86D-13 3.33D-08 XBig12= 4.91D-13 1.05D-07.
      1 vectors produced by pass 17 Test12= 8.86D-13 3.33D-08 XBig12= 3.53D-14 3.49D-08.
 InvSVY:  IOpt=1 It=  1 EMax= 8.88D-15
 Solved reduced A of dimension    51 with     3 vectors.
 FullF1:  Do perturbations      1 to       3.
 Saving first derivative matrices.
 End of Minotr F.D. properties file   721 does not exist.
 End of Minotr F.D. properties file   722 does not exist.
 End of Minotr F.D. properties file   788 does not exist.
 Leave Link 1002 at Wed Aug 13 17:15:42 2025, MaxMem=  1342177280 cpu:            1054.2 elap:             132.2
 (Enter /opt/bwhpc/common/chem/gaussian/g16.C.01/x86_64-Intel-avx2-source/g16/l811.exe)
 MDV=  1342177280.
 Form MO integral derivatives with frozen-active canonical formalism.
 MOERI=1 MOERIx=0 NAtoms=    38 NAtomX=    38.
 Discarding MO integrals.
 MO basis two electron integral derivatives will not be stored on disk.
 IAlg= 3 DoFC=T DoPWx=T Debug=F.
 Frozen-core window:  NFC=  24 NFV=   0.
 Reordered first order wavefunction length =   1411717248
 In DefCFB: NBatch=  1 ICI= 82 ICA=324 LFMax= 82
            Large arrays: LIAPS=  4638241440 LIARS=   171363600 words.
 In StABat: MaxSiz= 15 MinSiz= 10 NAtomB= 29
 DoIAMN: NPSUse=  8.
 Leave Link  811 at Wed Aug 13 17:30:32 2025, MaxMem=  1342177280 cpu:            7100.9 elap:             890.2
 (Enter /opt/bwhpc/common/chem/gaussian/g16.C.01/x86_64-Intel-avx2-source/g16/l804.exe)
 Frozen-core window:  NFC=  24 NFV=   0.
 Closed-shell transformation, MDV=  1342177280 ITran=4 ISComp=1.
 Semi-Direct transformation.
 ModeAB=           4 MOrb=            82 LenV=    1337999067
 LASXX=   2363578947 LTotXX=  2363578947 LenRXX=  4749402034
 LTotAB=  2385823087 MaxLAS=  2150862952 LenRXY=           0
 NonZer=  7112980981 LenScr= 14281752064 LnRSAI=  2150862952
 LnScr1=  4318596096 LExtra=           0 Total=  25500613146
 MaxDsk=          -1 SrtSym=           T ITran=            4
 DoSDTr:  NPSUse=  8
 JobTyp=0 Pass  1:  I=   1 to  82.
 Complete sort for first half transformation.
 First half transformation complete.
 Begin second half transformation for I=  10.
 Begin second half transformation for I=  20.
 Begin second half transformation for I=  30.
 Begin second half transformation for I=  40.
 Begin second half transformation for I=  50.
 Begin second half transformation for I=  60.
 Begin second half transformation for I=  70.
 Begin second half transformation for I=  80.
 Complete sort for second half transformation.
 Second half transformation complete.
 SymMOI:  orbitals are not symmetric.
 Spin components of T(2) and E(2):
     alpha-alpha T2 =       0.1768735481D+00 E2=     -0.4579301889D+00
     alpha-beta  T2 =       0.8740865363D+00 E2=     -0.2392457388D+01
     beta-beta   T2 =       0.1768735481D+00 E2=     -0.4579301889D+00
 ANorm=    0.2110845154D+01
 E2 =    -0.3308317766D+01 EUMP2 =    -0.10274087359183D+04
 Leave Link  804 at Wed Aug 13 17:44:57 2025, MaxMem=  1342177280 cpu:            6889.4 elap:             863.5
 (Enter /opt/bwhpc/common/chem/gaussian/g16.C.01/x86_64-Intel-avx2-source/g16/l1002.exe)
 Minotr:  Closed shell wavefunction.
          Computing MP2/KS-MP2 derivatives.
          Using Z-Vector for PSCF gradient.
          Skipping F1 and S1 gradient terms here.
          Frozen-core window.
          Using MO integrals in the linear equations.
          Forming densities via direct SCF.
          Differentiating once with respect to electric field.
                with respect to dipole field.
          Electric field/nuclear overlap derivatives assumed to be zero.
          Requested convergence is 1.0D-10 RMS, and 1.0D-09 maximum.
          NewPWx=F KeepS1=T KeepF1=T KeepIn=T MapXYZ=F SortEE=F KeepMc=T.
          MDV=    1342177280 using IRadAn=       5.
          Solving linear equations separately, MaxMat=       0.
          There are     1 degrees of freedom in the 1st order CPHF.  IDoFFX=0 NUNeed=     1.
 FoFJK:  IHMeth= 1 ICntrl=       0 DoSepK=F KAlg= 0 I1Cent=           0 FoldK=F
 IRaf=         0 NMat=       1 IRICut=       1 DoRegI=T DoRafI=F ISym2E= 0 IDoP0=0 IntGTp=1.
 FoFCou: FMM=F IPFlag=           0 FMFlag=      100000 FMFlg1=           0
         NFxFlg=           0 DoJE=F BraDBF=F KetDBF=F FulRan=T
         wScrn=  0.000000 ICntrl=         0 IOpCl=  0 I1Cent=           0 NGrid=           0
         NMat0=    1 NMatS0=      1 NMatT0=    0 NMatD0=    1 NMtDS0=    0 NMtDT0=    0
 Symmetry not used in FoFCou.
 LinEq1:  Iter=  0 NonCon=     1 RMS=3.23D-03 Max=1.05D-01 NDo=     1
 LinEq1:  Iter=  1 NonCon=     1 RMS=8.38D-04 Max=3.21D-02 NDo=     1
 LinEq1:  Iter=  2 NonCon=     1 RMS=4.55D-04 Max=1.67D-02 NDo=     1
 LinEq1:  Iter=  3 NonCon=     1 RMS=1.98D-04 Max=9.95D-03 NDo=     1
 LinEq1:  Iter=  4 NonCon=     1 RMS=7.43D-05 Max=4.48D-03 NDo=     1
 LinEq1:  Iter=  5 NonCon=     1 RMS=2.78D-05 Max=1.20D-03 NDo=     1
 LinEq1:  Iter=  6 NonCon=     1 RMS=1.25D-05 Max=4.90D-04 NDo=     1
 LinEq1:  Iter=  7 NonCon=     1 RMS=4.43D-06 Max=2.39D-04 NDo=     1
 LinEq1:  Iter=  8 NonCon=     1 RMS=2.04D-06 Max=7.93D-05 NDo=     1
 LinEq1:  Iter=  9 NonCon=     1 RMS=7.36D-07 Max=2.40D-05 NDo=     1
 LinEq1:  Iter= 10 NonCon=     1 RMS=2.67D-07 Max=9.68D-06 NDo=     1
 LinEq1:  Iter= 11 NonCon=     1 RMS=1.15D-07 Max=4.83D-06 NDo=     1
 LinEq1:  Iter= 12 NonCon=     1 RMS=4.58D-08 Max=2.21D-06 NDo=     1
 LinEq1:  Iter= 13 NonCon=     1 RMS=2.10D-08 Max=5.18D-07 NDo=     1
 LinEq1:  Iter= 14 NonCon=     1 RMS=5.83D-09 Max=1.54D-07 NDo=     1
 LinEq1:  Iter= 15 NonCon=     1 RMS=2.51D-09 Max=9.26D-08 NDo=     1
 LinEq1:  Iter= 16 NonCon=     1 RMS=9.43D-10 Max=3.03D-08 NDo=     1
 LinEq1:  Iter= 17 NonCon=     1 RMS=4.93D-10 Max=2.04D-08 NDo=     1
 LinEq1:  Iter= 18 NonCon=     1 RMS=1.86D-10 Max=8.99D-09 NDo=     1
 LinEq1:  Iter= 19 NonCon=     1 RMS=7.08D-11 Max=4.43D-09 NDo=     1
 LinEq1:  Iter= 20 NonCon=     1 RMS=3.01D-11 Max=1.05D-09 NDo=     1
 LinEq1:  Iter= 21 NonCon=     0 RMS=1.16D-11 Max=4.17D-10 NDo=     1
 Linear equations converged to 1.000D-10 1.000D-09 after    21 iterations.
 End of Minotr F.D. properties file   721 does not exist.
 End of Minotr F.D. properties file   722 does not exist.
 End of Minotr F.D. properties file   788 does not exist.
 Leave Link 1002 at Wed Aug 13 17:48:18 2025, MaxMem=  1342177280 cpu:            1592.2 elap:             201.2
 (Enter /opt/bwhpc/common/chem/gaussian/g16.C.01/x86_64-Intel-avx2-source/g16/l1112.exe)
 MP22nd: MDV=    1342177280
 This link is doing NAtomX=    38 total of     3 degrees of freedom.
 Using gON3 I/O method in MakUI.
 Frozen-core window:  NFC=  24 NFV=   0.
 Using Ix for Sx.
 Use MO integrals over full window.
 Using OV2 memory method for fx*t*t/D, MaxI=    19 DoOO2=F NP=   8.
 Would need an additional  7284752870 words for in-memory AO integral storage.
 DD1Dir will call FoFJK  12 times, MxPair=       568
 NAB=  3403 NAA=     0 NBB=     0 NumPrc=  8.
 DD1Dir:  Pass   1 NRAB=   284 NRAA=     0 NRBB=     0 NR=   568.
 FoFJK:  IHMeth= 1 ICntrl=     200 DoSepK=F KAlg= 0 I1Cent=           0 FoldK=F
 IRaf= 990000000 NMat=     568 IRICut=     710 DoRegI=T DoRafI=T ISym2E= 2 IDoP0=3 IntGTp=3.
 FoFCou: FMM=F IPFlag=           0 FMFlag=           0 FMFlg1=           0
         NFxFlg=           0 DoJE=F BraDBF=F KetDBF=F FulRan=T
         wScrn=  0.000000 ICntrl=       200 IOpCl=  0 I1Cent=           0 NGrid=           0
         NMat0=  568 NMatS0=      0 NMatT0=  284 NMatD0=  568 NMtDS0=    0 NMtDT0=    0
 Integrals replicated using symmetry in FoFCou.
 Raff kept on since  22.05% of shell-pairs survive, threshold=   0.20 IRatSp=22.
 DD1Dir:  Pass   2 NRAB=   284 NRAA=     0 NRBB=     0 NR=   568.
 DD1Dir:  Pass   3 NRAB=   284 NRAA=     0 NRBB=     0 NR=   568.
 DD1Dir:  Pass   4 NRAB=   284 NRAA=     0 NRBB=     0 NR=   568.
 DD1Dir:  Pass   5 NRAB=   284 NRAA=     0 NRBB=     0 NR=   568.
 DD1Dir:  Pass   6 NRAB=   284 NRAA=     0 NRBB=     0 NR=   568.
 DD1Dir:  Pass   7 NRAB=   284 NRAA=     0 NRBB=     0 NR=   568.
 DD1Dir:  Pass   8 NRAB=   284 NRAA=     0 NRBB=     0 NR=   568.
 DD1Dir:  Pass   9 NRAB=   284 NRAA=     0 NRBB=     0 NR=   568.
 DD1Dir:  Pass  10 NRAB=   284 NRAA=     0 NRBB=     0 NR=   568.
 DD1Dir:  Pass  11 NRAB=   284 NRAA=     0 NRBB=     0 NR=   568.
 DD1Dir:  Pass  12 NRAB=   279 NRAA=     0 NRBB=     0 NR=   558.
 Symmetry is being used.
 Discarding MO integrals.
 Leave Link 1112 at Wed Aug 13 18:49:55 2025, MaxMem=  1342177280 cpu:           29474.4 elap:            3695.6
 (Enter /opt/bwhpc/common/chem/gaussian/g16.C.01/x86_64-Intel-avx2-source/g16/l601.exe)
 Copying SCF densities to generalized density rwf, IOpCl= 0 IROHF=0.

 **********************************************************************

            Population analysis using the MP2 Density.

 **********************************************************************

 Orbital symmetries:
       Occupied  (A) (A) (A) (A) (A) (A) (A) (A) (A) (A) (A) (A)
                 (A) (A) (A) (A) (A) (A) (A) (A) (A) (A) (A) (A)
                 (A) (A) (A) (A) (A) (A) (A) (A) (A) (A) (A) (A)
                 (A) (A) (A) (A) (A) (A) (A) (A) (A) (A) (A) (A)
                 (A) (A) (A) (A) (A) (A) (A) (A) (A) (A) (A) (A)
                 (A) (A) (A) (A) (A) (A) (A) (A) (A) (A) (A) (A)
                 (A) (A) (A) (A) (A) (A) (A) (A) (A) (A)
       Virtual   (A) (A) (A) (A) (A) (A) (A) (A) (A) (A) (A) (A)
                 (A) (A) (A) (A) (A) (A) (A) (A) (A) (A) (A) (A)
                 (A) (A) (A) (A) (A) (A) (A) (A) (A) (A) (A) (A)
                 (A) (A) (A) (A) (A) (A) (A) (A) (A) (A) (A) (A)
                 (A) (A) (A) (A) (A) (A) (A) (A) (A) (A) (A) (A)
                 (A) (A) (A) (A) (A) (A) (A) (A) (A) (A) (A) (A)
                 (A) (A) (A) (A) (A) (A) (A) (A) (A) (A) (A) (A)
                 (A) (A) (A) (A) (A) (A) (A) (A) (A) (A) (A) (A)
                 (A) (A) (A) (A) (A) (A) (A) (A) (A) (A) (A) (A)
                 (A) (A) (A) (A) (A) (A) (A) (A) (A) (A) (A) (A)
                 (A) (A) (A) (A) (A) (A) (A) (A) (A) (A) (A) (A)
                 (A) (A) (A) (A) (A) (A) (A) (A) (A) (A) (A) (A)
                 (A) (A) (A) (A) (A) (A) (A) (A) (A) (A) (A) (A)
                 (A) (A) (A) (A) (A) (A) (A) (A) (A) (A) (A) (A)
                 (A) (A) (A) (A) (A) (A) (A) (A) (A) (A) (A) (A)
                 (A) (A) (A) (A) (A) (A) (A) (A) (A) (A) (A) (A)
                 (A) (A) (A) (A) (A) (A) (A) (A) (A) (A) (A) (A)
                 (A) (A) (A) (A) (A) (A) (A) (A) (A) (A) (A) (A)
                 (A) (A) (A) (A) (A) (A) (A) (A) (A) (A) (A) (A)
                 (A) (A) (A) (A) (A) (A) (A) (A) (A) (A) (A) (A)
                 (A) (A) (A) (A) (A) (A) (A) (A) (A) (A) (A) (A)
                 (A) (A) (A) (A) (A) (A) (A) (A) (A) (A) (A) (A)
                 (A) (A) (A) (A) (A) (A) (A) (A) (A) (A) (A) (A)
                 (A) (A) (A) (A) (A) (A) (A) (A) (A) (A) (A) (A)
                 (A) (A) (A) (A) (A) (A) (A) (A) (A) (A) (A) (A)
                 (A) (A) (A) (A) (A) (A) (A) (A) (A) (A) (A) (A)
                 (A) (A) (A) (A) (A) (A) (A) (A) (A) (A) (A) (A)
 The electronic state is 1-A.
 Alpha  occ. eigenvalues --  -20.58028 -20.57695 -15.83131 -15.59441 -11.30658
 Alpha  occ. eigenvalues --  -11.29126 -11.28970 -11.27778 -11.27243 -11.26978
 Alpha  occ. eigenvalues --  -11.26738 -11.26442 -11.26399 -11.26304 -11.26021
 Alpha  occ. eigenvalues --  -11.25999 -11.25843 -11.25799 -11.25330 -11.25265
 Alpha  occ. eigenvalues --  -11.25204 -11.25115 -11.24803 -11.23274  -1.58718
 Alpha  occ. eigenvalues --   -1.37924  -1.23830  -1.21015  -1.16726  -1.13700
 Alpha  occ. eigenvalues --   -1.12646  -1.09249  -1.06570  -1.03388  -1.02768
 Alpha  occ. eigenvalues --   -1.00329  -0.97855  -0.93836  -0.87516  -0.86907
 Alpha  occ. eigenvalues --   -0.85796  -0.84053  -0.80693  -0.79547  -0.75962
 Alpha  occ. eigenvalues --   -0.74139  -0.73248  -0.72230  -0.70731  -0.70456
 Alpha  occ. eigenvalues --   -0.69775  -0.69749  -0.67417  -0.65850  -0.64844
 Alpha  occ. eigenvalues --   -0.62915  -0.61913  -0.61156  -0.59483  -0.58401
 Alpha  occ. eigenvalues --   -0.57141  -0.57127  -0.56865  -0.56281  -0.54588
 Alpha  occ. eigenvalues --   -0.53937  -0.52631  -0.51218  -0.50819  -0.48742
 Alpha  occ. eigenvalues --   -0.47748  -0.47530  -0.47128  -0.46742  -0.44636
 Alpha  occ. eigenvalues --   -0.43084  -0.40197  -0.37896  -0.35266  -0.32136
 Alpha  occ. eigenvalues --   -0.30552  -0.24717
 Alpha virt. eigenvalues --    0.01891   0.07349   0.08620   0.12060   0.14002
 Alpha virt. eigenvalues --    0.16463   0.17261   0.17758   0.18112   0.18690
 Alpha virt. eigenvalues --    0.19458   0.19903   0.20737   0.21645   0.23204
 Alpha virt. eigenvalues --    0.24749   0.25145   0.25825   0.27999   0.29628
 Alpha virt. eigenvalues --    0.30339   0.32186   0.33602   0.34750   0.35280
 Alpha virt. eigenvalues --    0.37977   0.39346   0.40178   0.41613   0.42664
 Alpha virt. eigenvalues --    0.43803   0.45114   0.45909   0.46167   0.46560
 Alpha virt. eigenvalues --    0.47422   0.48097   0.49731   0.50508   0.51532
 Alpha virt. eigenvalues --    0.53801   0.57204   0.57945   0.59352   0.60628
 Alpha virt. eigenvalues --    0.62154   0.63493   0.63937   0.63997   0.64566
 Alpha virt. eigenvalues --    0.65292   0.65471   0.66127   0.66322   0.67325
 Alpha virt. eigenvalues --    0.67475   0.67949   0.68404   0.69363   0.70336
 Alpha virt. eigenvalues --    0.70478   0.70719   0.71570   0.71980   0.73044
 Alpha virt. eigenvalues --    0.73285   0.73632   0.73924   0.74146   0.74523
 Alpha virt. eigenvalues --    0.75122   0.75723   0.75803   0.76133   0.76663
 Alpha virt. eigenvalues --    0.77424   0.77673   0.78910   0.79314   0.80009
 Alpha virt. eigenvalues --    0.80760   0.81353   0.83210   0.83974   0.85406
 Alpha virt. eigenvalues --    0.86398   0.86499   0.87407   0.88552   0.89212
 Alpha virt. eigenvalues --    0.89405   0.89880   0.90475   0.91020   0.91994
 Alpha virt. eigenvalues --    0.92537   0.93178   0.94784   0.95557   0.95933
 Alpha virt. eigenvalues --    0.97055   0.98975   1.00332   1.00733   1.01500
 Alpha virt. eigenvalues --    1.01934   1.02603   1.05099   1.05509   1.06663
 Alpha virt. eigenvalues --    1.07242   1.08088   1.08658   1.09472   1.09958
 Alpha virt. eigenvalues --    1.11005   1.11824   1.12401   1.12793   1.14255
 Alpha virt. eigenvalues --    1.14444   1.15452   1.15759   1.16219   1.16443
 Alpha virt. eigenvalues --    1.16715   1.17344   1.18541   1.19227   1.19723
 Alpha virt. eigenvalues --    1.19865   1.20504   1.21491   1.21786   1.22892
 Alpha virt. eigenvalues --    1.23538   1.24220   1.24612   1.25467   1.26256
 Alpha virt. eigenvalues --    1.27568   1.27996   1.28096   1.29072   1.29199
 Alpha virt. eigenvalues --    1.30131   1.30569   1.31113   1.31886   1.32514
 Alpha virt. eigenvalues --    1.33313   1.35293   1.36101   1.37987   1.38853
 Alpha virt. eigenvalues --    1.39258   1.40156   1.42359   1.44639   1.46408
 Alpha virt. eigenvalues --    1.49832   1.53995   1.56623   1.56951   1.57937
 Alpha virt. eigenvalues --    1.58701   1.58959   1.60177   1.60517   1.61609
 Alpha virt. eigenvalues --    1.62261   1.62352   1.64103   1.65728   1.67149
 Alpha virt. eigenvalues --    1.67291   1.67709   1.68413   1.69827   1.70803
 Alpha virt. eigenvalues --    1.70908   1.71998   1.73796   1.74043   1.74740
 Alpha virt. eigenvalues --    1.75847   1.76575   1.76830   1.78324   1.79958
 Alpha virt. eigenvalues --    1.80574   1.82507   1.82785   1.82974   1.83806
 Alpha virt. eigenvalues --    1.84967   1.85712   1.86131   1.86239   1.86632
 Alpha virt. eigenvalues --    1.87711   1.88386   1.89167   1.90185   1.90933
 Alpha virt. eigenvalues --    1.91238   1.92428   1.92847   1.93444   1.93734
 Alpha virt. eigenvalues --    1.94185   1.95495   1.97333   1.97510   1.98978
 Alpha virt. eigenvalues --    1.99960   2.00632   2.01467   2.02124   2.02647
 Alpha virt. eigenvalues --    2.04012   2.05284   2.05958   2.06246   2.07375
 Alpha virt. eigenvalues --    2.07852   2.08874   2.08976   2.09653   2.10477
 Alpha virt. eigenvalues --    2.11257   2.11428   2.12279   2.12866   2.13796
 Alpha virt. eigenvalues --    2.14984   2.15987   2.16947   2.18371   2.19884
 Alpha virt. eigenvalues --    2.20742   2.21242   2.22133   2.24906   2.25366
 Alpha virt. eigenvalues --    2.25921   2.26856   2.29163   2.30111   2.30572
 Alpha virt. eigenvalues --    2.32413   2.34086   2.35238   2.35742   2.36849
 Alpha virt. eigenvalues --    2.38517   2.38860   2.40680   2.41028   2.41283
 Alpha virt. eigenvalues --    2.42485   2.42833   2.43370   2.45799   2.47944
 Alpha virt. eigenvalues --    2.48994   2.49946   2.50944   2.52036   2.52572
 Alpha virt. eigenvalues --    2.53142   2.55207   2.56361   2.58190   2.59653
 Alpha virt. eigenvalues --    2.61753   2.62583   2.66159   2.67431   2.68931
 Alpha virt. eigenvalues --    2.69792   2.70727   2.72217   2.77150   2.78846
 Alpha virt. eigenvalues --    2.79832   2.80635   2.81130   2.83403   2.84114
 Alpha virt. eigenvalues --    2.86897   2.87977   2.92657   2.94989   2.97600
 Alpha virt. eigenvalues --    2.99301   2.99343   2.99827   3.00819   3.03037
 Alpha virt. eigenvalues --    3.03716   3.07224   3.08503   3.10146   3.11596
 Alpha virt. eigenvalues --    3.13333   3.15117   3.15821   3.17080   3.21090
 Alpha virt. eigenvalues --    3.24925   3.37961   3.38093   3.41453   3.56991
 Alpha virt. eigenvalues --    3.61051   3.61848   3.63577   3.73112   3.79777
 Alpha virt. eigenvalues --    3.81694   3.87539   4.03049   4.06621
          Condensed to atoms (all electrons):
               1          2          3          4          5          6
     1  C    5.612421   0.340524   0.036419  -0.112626  -0.001870   0.000143
     2  C    0.340524   5.139705   0.354893   0.035256   0.009370  -0.000520
     3  C    0.036419   0.354893   5.071930   0.334165  -0.110845   0.008631
     4  C   -0.112626   0.035256   0.334165   5.537527   0.313258   0.037622
     5  C   -0.001870   0.009370  -0.110845   0.313258   5.078087   0.377101
     6  C    0.000143  -0.000520   0.008631   0.037622   0.377101   5.169203
     7  C   -0.000373   0.000066  -0.001379  -0.114539   0.033302   0.297475
     8  C   -0.000004   0.000001  -0.000004  -0.002555   0.015051  -0.109860
     9  C    0.000001  -0.000000   0.000001  -0.000050   0.000041   0.015264
    10  C   -0.000003   0.000001  -0.000004  -0.000103   0.000039  -0.003168
    11  C   -0.002298  -0.000016  -0.000137   0.026726  -0.003979   0.022909
    12  C    0.014086  -0.000021   0.000074  -0.004018  -0.000044   0.000088
    13  C   -0.122337   0.014535  -0.003166   0.022268   0.000089  -0.000085
    14  C    0.128003   0.010567  -0.118371  -0.037390   0.020830  -0.004007
    15  C    0.014148  -0.113039   0.012826   0.126678   0.011047  -0.120455
    16  C    0.027914  -0.003725   0.022344  -0.028396  -0.123195  -0.004725
    17  C    0.198835  -0.110504   0.012439  -0.001934  -0.000000   0.000000
    18  C    0.000000   0.000000  -0.000000   0.000030  -0.000602  -0.025425
    19  C   -0.034570  -0.025255  -0.000575   0.000047  -0.000000  -0.000000
    20  C    0.000000  -0.000000  -0.000000   0.000002  -0.000052  -0.000561
    21  N   -0.000000   0.000000  -0.000000  -0.000000  -0.000000  -0.000006
    22  N    0.002242  -0.000239  -0.000005   0.000000  -0.000000  -0.000000
    23  O   -0.000111   0.000002  -0.000000  -0.000000  -0.000000  -0.000000
    24  O    0.001324   0.000018   0.000000  -0.000000  -0.000000   0.000000
    25  H   -0.030460   0.382862  -0.042689   0.008516  -0.000298   0.000006
    26  H    0.007925  -0.040001   0.380279  -0.032556  -0.015347   0.000418
    27  H   -0.000052   0.000368  -0.015866  -0.035906   0.380075  -0.037573
    28  H    0.000001   0.000007  -0.000308   0.008257  -0.048893   0.376632
    29  H    0.000000   0.000000   0.000000  -0.000000   0.000006  -0.000224
    30  H   -0.000001   0.000000  -0.000000   0.000004   0.000000   0.000035
    31  H   -0.000371   0.000005   0.000001   0.000017   0.000000   0.000005
    32  H   -0.039200  -0.001055   0.000010  -0.000065   0.000002  -0.000000
    33  H    0.015348   0.010133  -0.000041  -0.000111  -0.000000   0.000000
    34  H   -0.000000   0.000000  -0.000000  -0.000078   0.001720   0.007282
    35  H   -0.016097   0.004132   0.000601  -0.000041  -0.000000   0.000000
    36  H   -0.000000   0.000000   0.000000  -0.000000   0.000002  -0.000003
    37  H   -0.000000  -0.000000   0.000000  -0.000000  -0.000000  -0.000001
    38  H   -0.000000  -0.000000  -0.000000  -0.000000   0.000000   0.000001
               7          8          9         10         11         12
     1  C   -0.000373  -0.000004   0.000001  -0.000003  -0.002298   0.014086
     2  C    0.000066   0.000001  -0.000000   0.000001  -0.000016  -0.000021
     3  C   -0.001379  -0.000004   0.000001  -0.000004  -0.000137   0.000074
     4  C   -0.114539  -0.002555  -0.000050  -0.000103   0.026726  -0.004018
     5  C    0.033302   0.015051   0.000041   0.000039  -0.003979  -0.000044
     6  C    0.297475  -0.109860   0.015264  -0.003168   0.022909   0.000088
     7  C    5.829982   0.156091   0.016761  -0.116496  -0.042549   0.021100
     8  C    0.156091   5.496403   0.348229   0.028037  -0.109484  -0.001759
     9  C    0.016761   0.348229   5.113318   0.345754   0.035950   0.009395
    10  C   -0.116496   0.028037   0.345754   5.114749   0.338224  -0.111423
    11  C   -0.042549  -0.109484   0.035950   0.338224   5.516681   0.307236
    12  C    0.021100  -0.001759   0.009395  -0.111423   0.307236   5.095853
    13  C   -0.003899   0.000128  -0.000505   0.008815   0.037098   0.375096
    14  C    0.027612  -0.000287   0.000070  -0.001412  -0.113616   0.035474
    15  C   -0.032223   0.028079  -0.004273   0.023133  -0.029997  -0.121323
    16  C    0.045214   0.000028  -0.115935   0.010612   0.126236   0.010664
    17  C    0.000001   0.000000   0.000000  -0.000001  -0.000057   0.000094
    18  C   -0.061809   0.298035  -0.102223   0.011819  -0.001367   0.000001
    19  C    0.000000   0.000000  -0.000000  -0.000000   0.000001  -0.000049
    20  C    0.011661  -0.034156  -0.023391   0.000058  -0.000014  -0.000000
    21  N   -0.000101   0.001938   0.000152  -0.000002  -0.000000  -0.000000
    22  N   -0.000000   0.000000   0.000000   0.000000   0.000000  -0.000000
    23  O   -0.000000   0.000000   0.000000  -0.000000  -0.000000  -0.000000
    24  O   -0.000000   0.000000  -0.000000  -0.000000   0.000000  -0.000001
    25  H    0.000001   0.000000  -0.000000   0.000000   0.000000   0.000002
    26  H   -0.000025  -0.000001   0.000000  -0.000000   0.000004   0.000000
    27  H    0.008138  -0.000338   0.000006   0.000000   0.000017   0.000000
    28  H   -0.016414  -0.035511  -0.000770   0.000003  -0.000103   0.000002
    29  H    0.010599  -0.034118   0.378074  -0.039782   0.007860  -0.000318
    30  H    0.000139   0.007605  -0.041788   0.379146  -0.031613  -0.015829
    31  H   -0.000163  -0.000042   0.000311  -0.016009  -0.036085   0.379404
    32  H    0.000018   0.000001   0.000007  -0.000286   0.008013  -0.043548
    33  H    0.000000  -0.000000   0.000000  -0.000000  -0.000060   0.000895
    34  H   -0.033379   0.006923   0.009825  -0.000178  -0.000033   0.000000
    35  H   -0.000000  -0.000000   0.000000   0.000000  -0.000000   0.000001
    36  H   -0.000244  -0.014545   0.004959   0.000378  -0.000030  -0.000000
    37  H    0.000010  -0.000481   0.000037   0.000001  -0.000000  -0.000000
    38  H   -0.000023   0.000442   0.000008   0.000001  -0.000000   0.000000
              13         14         15         16         17         18
     1  C   -0.122337   0.128003   0.014148   0.027914   0.198835   0.000000
     2  C    0.014535   0.010567  -0.113039  -0.003725  -0.110504   0.000000
     3  C   -0.003166  -0.118371   0.012826   0.022344   0.012439  -0.000000
     4  C    0.022268  -0.037390   0.126678  -0.028396  -0.001934   0.000030
     5  C    0.000089   0.020830   0.011047  -0.123195  -0.000000  -0.000602
     6  C   -0.000085  -0.004007  -0.120455  -0.004725   0.000000  -0.025425
     7  C   -0.003899   0.027612  -0.032223   0.045214   0.000001  -0.061809
     8  C    0.000128  -0.000287   0.028079   0.000028   0.000000   0.298035
     9  C   -0.000505   0.000070  -0.004273  -0.115935   0.000000  -0.102223
    10  C    0.008815  -0.001412   0.023133   0.010612  -0.000001   0.011819
    11  C    0.037098  -0.113616  -0.029997   0.126236  -0.000057  -0.001367
    12  C    0.375096   0.035474  -0.121323   0.010664   0.000094   0.000001
    13  C    5.173542   0.304646  -0.010755  -0.117987  -0.023996   0.000000
    14  C    0.304646   5.862916   0.046495  -0.036143  -0.065861  -0.000001
    15  C   -0.010755   0.046495   6.143116  -0.036679   0.018671  -0.000253
    16  C   -0.117987  -0.036143  -0.036679   6.179515  -0.000316   0.018480
    17  C   -0.023996  -0.065861   0.018671  -0.000316   5.362094  -0.000000
    18  C    0.000000  -0.000001  -0.000253   0.018480  -0.000000   5.181390
    19  C   -0.000120   0.011106  -0.000293  -0.000000   0.311026  -0.000000
    20  C   -0.000000   0.000000   0.000001  -0.000108   0.000000   0.492100
    21  N    0.000000  -0.000000   0.000000   0.000001   0.000000  -0.061818
    22  N   -0.000020  -0.000049   0.000001  -0.000000  -0.026178  -0.000000
    23  O   -0.000000  -0.000000   0.000000   0.000000   0.010719   0.000000
    24  O   -0.000025  -0.000041   0.000000   0.000000   0.013241   0.000000
    25  H   -0.000145   0.011799  -0.000723   0.000017  -0.030705  -0.000000
    26  H    0.000034   0.000145   0.010841  -0.000305  -0.000288  -0.000000
    27  H    0.000005  -0.000176   0.011398  -0.000291  -0.000001   0.000016
    28  H   -0.000000   0.000016  -0.000780   0.013873   0.000000   0.010483
    29  H    0.000007   0.000001   0.000025  -0.000245  -0.000000  -0.019202
    30  H    0.000388  -0.000021  -0.000342   0.011330  -0.000000  -0.000320
    31  H   -0.036102   0.008528  -0.000256   0.011324   0.000040  -0.000001
    32  H    0.378084  -0.017574   0.012808  -0.000795   0.012026   0.000000
    33  H    0.004125  -0.033507  -0.000458   0.000103   0.343972   0.000000
    34  H   -0.000000   0.000000   0.000061  -0.001001   0.000000   0.363056
    35  H   -0.000004  -0.000360   0.000031   0.000000  -0.027373  -0.000000
    36  H    0.000000  -0.000000   0.000000   0.000000  -0.000000  -0.031318
    37  H    0.000000  -0.000000   0.000000   0.000000  -0.000000   0.005760
    38  H   -0.000000   0.000000   0.000000  -0.000001   0.000000  -0.014753
              19         20         21         22         23         24
     1  C   -0.034570   0.000000  -0.000000   0.002242  -0.000111   0.001324
     2  C   -0.025255  -0.000000   0.000000  -0.000239   0.000002   0.000018
     3  C   -0.000575  -0.000000  -0.000000  -0.000005  -0.000000   0.000000
     4  C    0.000047   0.000002  -0.000000   0.000000  -0.000000  -0.000000
     5  C   -0.000000  -0.000052  -0.000000  -0.000000  -0.000000  -0.000000
     6  C   -0.000000  -0.000561  -0.000006  -0.000000  -0.000000   0.000000
     7  C    0.000000   0.011661  -0.000101  -0.000000  -0.000000  -0.000000
     8  C    0.000000  -0.034156   0.001938   0.000000   0.000000   0.000000
     9  C   -0.000000  -0.023391   0.000152   0.000000   0.000000  -0.000000
    10  C   -0.000000   0.000058  -0.000002   0.000000  -0.000000  -0.000000
    11  C    0.000001  -0.000014  -0.000000   0.000000  -0.000000   0.000000
    12  C   -0.000049  -0.000000  -0.000000  -0.000000  -0.000000  -0.000001
    13  C   -0.000120  -0.000000   0.000000  -0.000020  -0.000000  -0.000025
    14  C    0.011106   0.000000  -0.000000  -0.000049  -0.000000  -0.000041
    15  C   -0.000293   0.000001   0.000000   0.000001   0.000000   0.000000
    16  C   -0.000000  -0.000108   0.000001  -0.000000   0.000000   0.000000
    17  C    0.311026   0.000000   0.000000  -0.026178   0.010719   0.013241
    18  C   -0.000000   0.492100  -0.061818  -0.000000   0.000000   0.000000
    19  C    5.278843  -0.000000   0.000000   0.231696  -0.092826  -0.127273
    20  C   -0.000000   4.819718   0.418044   0.000000   0.000000   0.000000
    21  N    0.000000   0.418044   6.085155   0.000000   0.000000   0.000000
    22  N    0.231696   0.000000   0.000000   5.869643   0.369785   0.408806
    23  O   -0.092826   0.000000   0.000000   0.369785   8.025070  -0.095339
    24  O   -0.127273   0.000000   0.000000   0.408806  -0.095339   7.983157
    25  H    0.006387  -0.000000  -0.000000   0.000011  -0.000145  -0.000007
    26  H    0.000013   0.000000  -0.000000  -0.000000   0.000000  -0.000000
    27  H    0.000000  -0.000001   0.000000   0.000000  -0.000000   0.000000
    28  H   -0.000000   0.001661  -0.000077   0.000000   0.000000   0.000000
    29  H    0.000000   0.003331  -0.000062  -0.000000   0.000000   0.000000
[...]
    32  H   -0.000024   0.000001  -0.000000   0.000000  -0.000000  -0.000022
    33  H    0.000074   0.000004   0.000000   0.000000  -0.000000   0.000000
    34  H    0.000000   0.000000   0.000086  -0.006871   0.000034   0.000007
    35  H   -0.003013   0.000058  -0.000000  -0.000000   0.000000   0.000000
    36  H    0.000000   0.000000   0.000000  -0.000022  -0.000899   0.000053
    37  H    0.000000  -0.000000   0.000000  -0.000005   0.000067   0.000000
    38  H    0.000000   0.000000   0.000000  -0.000027  -0.000009   0.000000
              31         32         33         34         35         36
     1  C   -0.000371  -0.039201   0.015347  -0.000000  -0.016097  -0.000000
     2  C    0.000005  -0.001055   0.010133   0.000000   0.004132   0.000000
     3  C    0.000001   0.000010  -0.000041  -0.000000   0.000601   0.000000
     4  C    0.000017  -0.000065  -0.000111  -0.000078  -0.000041  -0.000000
     5  C    0.000000   0.000002  -0.000000   0.001718  -0.000000   0.000002
     6  C    0.000005  -0.000000   0.000000   0.007301   0.000000  -0.000003
     7  C   -0.000164   0.000018   0.000000  -0.033477  -0.000000  -0.000251
     8  C   -0.000042   0.000001  -0.000000   0.006867  -0.000000  -0.014579
     9  C    0.000310   0.000007   0.000000   0.009863   0.000000   0.004951
    10  C   -0.016010  -0.000285  -0.000000  -0.000177   0.000000   0.000384
    11  C   -0.036080   0.008013  -0.000060  -0.000034  -0.000000  -0.000031
    12  C    0.379397  -0.043549   0.000895   0.000000   0.000001  -0.000000
    13  C   -0.036101   0.378084   0.004125  -0.000000  -0.000004   0.000000
    14  C    0.008528  -0.017570  -0.033508   0.000000  -0.000360  -0.000000
    15  C   -0.000255   0.012809  -0.000458   0.000063   0.000031   0.000000
    16  C    0.011325  -0.000796   0.000103  -0.001003   0.000000   0.000000
    17  C    0.000040   0.012026   0.343969   0.000000  -0.027373  -0.000000
    18  C   -0.000001   0.000000   0.000000   0.362920  -0.000000  -0.031188
    19  C   -0.000000   0.002092  -0.051645  -0.000000   0.384443   0.000000
    20  C   -0.000000  -0.000000  -0.000000  -0.062554   0.000000   0.380020
    21  N    0.000000   0.000000  -0.000000  -0.005948  -0.000000  -0.032255
    22  N   -0.000000   0.000043  -0.014708   0.000000  -0.024555  -0.000000
    23  O    0.000000  -0.000002   0.001191  -0.000000   0.011666   0.000000
    24  O    0.000000  -0.000772   0.044867  -0.000000   0.004253  -0.000000
    25  H   -0.000000  -0.000024   0.000074   0.000000  -0.003013   0.000000
    26  H    0.000000   0.000001   0.000004   0.000000   0.000058   0.000000
    27  H    0.000000  -0.000000   0.000000   0.000086  -0.000000   0.000000
    28  H   -0.000000   0.000000   0.000000  -0.006871  -0.000000  -0.000022
    29  H   -0.000016  -0.000000  -0.000000   0.000034   0.000000  -0.000899
    30  H    0.004345  -0.000022   0.000000   0.000007   0.000000   0.000053
    31  H    0.694543  -0.013081   0.000096   0.000000   0.000000   0.000000
    32  H   -0.013081   0.694722  -0.011035   0.000000  -0.000004  -0.000000
    33  H    0.000096  -0.011035   0.636595  -0.000000   0.006036   0.000000
    34  H    0.000000   0.000000  -0.000000   0.700320   0.000000   0.007811
    35  H    0.000000  -0.000004   0.006036   0.000000   0.617944   0.000000
    36  H    0.000000  -0.000000   0.000000   0.007811   0.000000   0.655054
    37  H    0.000000  -0.000000  -0.000000  -0.000025   0.000000  -0.010943
    38  H    0.000000   0.000000   0.000000   0.005061   0.000000   0.008072
              37         38
     1  C    0.000000  -0.000000
     2  C   -0.000000  -0.000000
     3  C    0.000000  -0.000000
     4  C   -0.000000  -0.000000
     5  C   -0.000000   0.000000
     6  C   -0.000001   0.000001
     7  C    0.000010  -0.000023
     8  C   -0.000479   0.000442
     9  C    0.000037   0.000008
    10  C    0.000001   0.000001
    11  C   -0.000000  -0.000000
    12  C   -0.000000   0.000000
    13  C    0.000000  -0.000000
    14  C   -0.000000   0.000000
    15  C    0.000000   0.000000
    16  C    0.000000  -0.000001
    17  C   -0.000000   0.000000
    18  C    0.005746  -0.014720
    19  C    0.000000   0.000000
    20  C   -0.019412  -0.024403
    21  N    0.368649   0.372088
    22  N    0.000000   0.000000
    23  O    0.000000   0.000000
    24  O    0.000000   0.000000
    25  H    0.000000   0.000000
    26  H   -0.000000   0.000000
    27  H    0.000000   0.000000
    28  H   -0.000005  -0.000027
    29  H    0.000067  -0.000009
    30  H    0.000000   0.000000
    31  H    0.000000   0.000000
    32  H   -0.000000   0.000000
    33  H   -0.000000   0.000000
    34  H   -0.000025   0.005061
    35  H    0.000000   0.000000
    36  H   -0.010943   0.008072
    37  H    0.566701  -0.033297
    38  H   -0.033297   0.575395
 Mulliken charges:
               1
     1  C   -0.038951
     2  C   -0.008074
     3  C    0.058784
     4  C   -0.080020
     5  C    0.065096
     6  C   -0.006265
     7  C   -0.034642
     8  C   -0.043596
     9  C    0.010798
    10  C    0.028159
    11  C   -0.055497
    12  C    0.048839
    13  C    0.000296
    14  C   -0.039408
    15  C    0.012499
    16  C   -0.007857
    17  C    0.004046
    18  C   -0.062366
    19  C    0.106965
    20  C    0.038419
    21  N   -0.146074
    22  N    0.183522
    23  O   -0.229980
    24  O   -0.232203
    25  H    0.009686
    26  H    0.007561
    27  H    0.003227
    28  H    0.007615
    29  H    0.007940
    30  H    0.001625
    31  H    0.003510
    32  H    0.019631
    33  H    0.048131
    34  H    0.008117
    35  H    0.042280
    36  H    0.033823
    37  H    0.122952
    38  H    0.111413
 Sum of Mulliken charges =  -0.00000
 Mulliken charges with hydrogens summed into heavy atoms:
               1
     1  C   -0.038951
     2  C    0.001611
     3  C    0.066344
     4  C   -0.080020
     5  C    0.068324
     6  C    0.001350
     7  C   -0.034642
     8  C   -0.043596
     9  C    0.018738
    10  C    0.029784
    11  C   -0.055497
    12  C    0.052349
    13  C    0.019927
    14  C   -0.039408
    15  C    0.012499
    16  C   -0.007857
    17  C    0.052177
    18  C   -0.054250
    19  C    0.149245
    20  C    0.072243
    21  N    0.088291
    22  N    0.183522
    23  O   -0.229980
    24  O   -0.232203
 Electronic spatial extent (au):  <R**2>=          11203.7874
 Charge=             -0.0000 electrons
 Dipole moment (field-independent basis, Debye):
    X=              8.7222    Y=              2.1236    Z=              0.8188  Tot=              9.0143
 Quadrupole moment (field-independent basis, Debye-Ang):
   XX=           -132.9581   YY=           -124.9404   ZZ=           -145.5004
   XY=             -5.1203   XZ=              7.1159   YZ=             -1.2357
 Traceless Quadrupole moment (field-independent basis, Debye-Ang):
   XX=              1.5082   YY=              9.5259   ZZ=            -11.0341
   XY=             -5.1203   XZ=              7.1159   YZ=             -1.2357
 Octapole moment (field-independent basis, Debye-Ang**2):
  XXX=            657.0305  YYY=              9.4437  ZZZ=              2.8503  XYY=             20.0730
  XXY=             81.0101  XXZ=             56.7550  XZZ=            -29.7853  YZZ=             -3.8011
  YYZ=             -0.0653  XYZ=             -9.3443
 Hexadecapole moment (field-independent basis, Debye-Ang**3):
 XXXX=         -12071.6563 YYYY=          -1839.4318 ZZZZ=           -164.7316 XXXY=             -2.3488
 XXXZ=            517.9757 YYYX=              1.4832 YYYZ=             -0.2619 ZZZX=              7.8748
 ZZZY=             -1.7698 XXYY=          -2315.6413 XXZZ=          -2148.6660 YYZZ=           -395.3689
 XXYZ=            -59.5023 YYXZ=             -3.0353 ZZXY=             25.2198
 N-N= 1.790737908288D+03 E-N=-5.975702797078D+03  KE= 1.026232235630D+03
  Exact polarizability:     558.243     -19.161     259.548       2.716      -2.440      79.392
 Approx polarizability:     406.102     -32.052     274.037       1.311      -2.599     102.359
 No NMR shielding tensors so no spin-rotation constants.
 Leave Link  601 at Thu Aug 14 09:39:23 2025, MaxMem=  1342177280 cpu:               2.9 elap:               0.4
 (Enter /opt/bwhpc/common/chem/gaussian/g16.C.01/x86_64-Intel-avx2-source/g16/l106.exe)
 NDeriv=      3 NFrqRd=  0 NDerD0=      0 MskFDP=       0 MskDFD=       0 MskDF0=       0
 Re-enter D2Numr:  atom      0 IXYZ=3 step-down number 1
 Max difference between analytic and numerical Dipole moment IMax=       3 EMax= 2.87D-04
 Max difference between off-diagonal Polarizability IMax=       2 JMax=       3 EMax= 4.42D-03
 Max difference between analytic and numerical Polarizability IMax=       1 EMax= 6.61D-02
 Max difference between off-diagonal HyperPolarizability IMax=       1 JMax=       1 KMax=       3 EMax= 1.64D+00
 Final packed hyperpolarizability:
 K=  1 block:
                1 
      1 -0.155815D+05
 K=  2 block:
                1             2 
      1 -0.218676D+03
      2 -0.409814D+03  0.142741D+03
 K=  3 block:
                1             2             3 
      1  0.375193D+02
      2 -0.600680D+01 -0.725271D+01
      3  0.255945D+02  0.222700D+01  0.543726D+01
 FinFTb:  IFil= 1 IFilD=  777 LTop=  1 LFil=      5525 LTop1=  0 IMask=  1
 Leave Link  106 at Thu Aug 14 09:39:23 2025, MaxMem=  1342177280 cpu:               1.0 elap:               0.1
 (Enter /opt/bwhpc/common/chem/gaussian/g16.C.01/x86_64-Intel-avx2-source/g16/l9999.exe)

 ----------------------------------------------------------------------

 Electric dipole moment (input orientation):
 (Debye = 10**-18 statcoulomb cm , SI units = C m)
                  (au)            (Debye)         (10**-30 SI)
   Tot        0.354350D+01      0.900668D+01      0.300431D+02
   x          0.243376D+01      0.618600D+01      0.206343D+02
   y         -0.250397D+01     -0.636447D+01     -0.212296D+02
   z          0.602771D+00      0.153209D+01      0.511051D+01

 Dipole polarizability, Alpha (input orientation).
 (esu units = cm**3 , SI units = C**2 m**2 J**-1)
 Alpha(0;0):
               (au)            (10**-24 esu)      (10**-40 SI)
   iso        0.299065D+03      0.443169D+02      0.493092D+02
   aniso      0.420283D+03      0.622795D+02      0.692953D+02
   xx         0.318221D+03      0.471555D+02      0.524676D+02
   yx        -0.119126D+03     -0.176527D+02     -0.196413D+02
   yy         0.495375D+03      0.734070D+02      0.816763D+02
   zx         0.198849D+02      0.294664D+01      0.327858D+01
   zy        -0.403463D+02     -0.597871D+01     -0.665221D+01
   zz         0.835996D+02      0.123882D+02      0.137837D+02

 First dipole hyperpolarizability, Beta (input orientation).
 ||, _|_  parallel and perpendicular components, (z) with respect to z axis,
 vector components x,y,z.  Values do not include the 1/n! factor of 1/2.
 (esu units = statvolt**-1 cm**4 , SI units = C**3 m**3 J**-2)
 Beta(0;0,0):
               (au)            (10**-30 esu)      (10**-50 SI)
   || (z)    -0.827933D+03     -0.715269D+01     -0.265465D+01
   _|_(z)    -0.275978D+03     -0.238423D+01     -0.884884D+00
   x         -0.243049D+05     -0.209975D+03     -0.779302D+02
   y          0.410650D+05      0.354770D+03      0.131669D+03
   z         -0.413966D+04     -0.357635D+02     -0.132733D+02
   ||         0.957956D+04      0.827599D+02      0.307155D+02
   xxx       -0.249908D+04     -0.215901D+02     -0.801296D+01
   xxy        0.366563D+04      0.316682D+02      0.117533D+02
   yxy       -0.555555D+04     -0.479956D+02     -0.178131D+02
   yyy        0.994454D+04      0.859131D+02      0.318858D+02
   xxz       -0.397931D+03     -0.343782D+01     -0.127591D+01
   yxz        0.578776D+03      0.500018D+01      0.185577D+01
   yyz       -0.984101D+03     -0.850187D+01     -0.315538D+01
   zxz       -0.469937D+02     -0.405989D+00     -0.150679D+00
   zyz        0.781665D+02      0.675297D+00      0.250630D+00
   zzz        0.214499D+01      0.185310D-01      0.687761D-02

 ----------------------------------------------------------------------

 Dipole orientation:
     6         -5.43463132         -2.80099327        -13.16760173
     6         -3.53110484         -1.09690503        -12.38819874
     6         -2.88439606         -0.80101755         -9.87506883
     6         -4.11496976         -2.21216263         -7.97519520
     6         -3.49325150         -1.92304143         -5.36028013
     6         -4.69084021         -3.30104467         -3.53269140
     6         -6.61582975         -5.11579965         -4.13278916
     6         -7.86554251         -6.58405415         -2.23071488
     6         -9.76678641         -8.28652154         -3.02162008
     6        -10.45263050         -8.54630500         -5.53519553
     6         -9.24320580         -7.14052541         -7.44381066
     6         -9.88513354         -7.40508001        -10.05495439
     6         -8.68817831         -6.04156103        -11.89280954
     6         -6.72423187         -4.26598588        -11.29067082
     6         -6.04734032         -3.96648054         -8.67356062
     6         -7.29658029         -5.40844788         -6.74441900
     6         -6.06783874         -3.05427282        -15.83045777
     6         -7.19295383         -6.35943772          0.43721317
     6         -5.02910089         -1.80983259        -17.79592200
     6         -8.68966987         -7.05133239          2.40547247
     7         -8.02140144         -7.03469447          4.90758180
     7         -5.89414500         -2.29523921        -20.35491457
     8         -4.84366205         -1.07482083        -22.02211569
     8         -7.57395648         -3.84721488        -20.71836350
     1         -2.53914016          0.02537626        -13.80693001
     1         -1.40670005          0.53815285         -9.33607402
     1         -2.03448093         -0.55485863         -4.84099927
     1         -4.17585839         -2.98977732         -1.56249053
     1        -10.68707172         -9.48691749         -1.61769054
     1        -11.92610745         -9.89594115         -6.06403052
     1        -11.37557491         -8.74066120        -10.57155612
     1         -9.25387647         -6.32079365        -13.85263212
     1         -7.54437701         -4.38539265        -16.37798135
     1         -5.33572538         -5.57831991          0.89769513
     1         -3.53725529         -0.39613557        -17.76000469
     1        -10.60964573         -7.74435689          2.06628683
     1         -9.40724003         -6.98323371          6.22449776
     1         -6.38540593         -6.17864923          5.41954194

 Electric dipole moment (dipole orientation):
 (Debye = 10**-18 statcoulomb cm , SI units = C m)
                  (au)            (Debye)         (10**-30 SI)
   Tot        0.354350D+01      0.900668D+01      0.300431D+02
   x          0.000000D+00      0.000000D+00      0.000000D+00
   y          0.000000D+00      0.000000D+00      0.000000D+00
   z          0.354350D+01      0.900668D+01      0.300431D+02

 Dipole polarizability, Alpha (dipole orientation).
 (esu units = cm**3 , SI units = C**2 m**2 J**-1)
 Alpha(0;0):
               (au)            (10**-24 esu)      (10**-40 SI)
   iso        0.299065D+03      0.443169D+02      0.493092D+02
   aniso      0.420283D+03      0.622795D+02      0.692953D+02
   xx         0.185724D+03      0.275215D+02      0.306218D+02
   yx         0.101521D+03      0.150438D+02      0.167385D+02
   yy         0.181601D+03      0.269105D+02      0.299420D+02
   zx        -0.379958D+02     -0.563040D+01     -0.626466D+01
   zy        -0.846855D+02     -0.125491D+02     -0.139628D+02
   zz         0.529870D+03      0.785187D+02      0.873638D+02

 First dipole hyperpolarizability, Beta (dipole orientation).
 ||, _|_  parallel and perpendicular components, (z) with respect to z axis,
 vector components x,y,z.  Values do not include the 1/n! factor of 1/2.
 (esu units = statvolt**-1 cm**4 , SI units = C**3 m**3 J**-2)
 Beta(0;0,0):
               (au)            (10**-30 esu)      (10**-50 SI)
   || (z)    -0.928309D+04     -0.801986D+02     -0.297649D+02
   _|_(z)    -0.309436D+04     -0.267329D+02     -0.992164D+01
   x          0.536973D+04      0.463903D+02      0.172173D+02
   y          0.105343D+05      0.910082D+02      0.337768D+02
   z         -0.464154D+05     -0.400993D+03     -0.148825D+03
   ||         0.957956D+04      0.827599D+02      0.307155D+02
   xxx        0.147741D+03      0.127637D+01      0.473712D+00
   xxy        0.178640D+03      0.154331D+01      0.572786D+00
   yxy        0.223044D+03      0.192693D+01      0.715160D+00
   yyy        0.299314D+03      0.258584D+01      0.959709D+00
   xxz       -0.318946D+03     -0.275544D+01     -0.102266D+01
   yxz       -0.500638D+03     -0.432512D+01     -0.160523D+01
   yyz       -0.811756D+03     -0.701294D+01     -0.260278D+01
   zxz        0.141912D+04      0.122601D+02      0.455022D+01
   zyz        0.303348D+04      0.262069D+02      0.972643D+01
   zzz       -0.143411D+05     -0.123896D+03     -0.459828D+02

 ----------------------------------------------------------------------
 Unable to Open any file for archive entry.
 1\1\GINC-N1532\SP\RMP2-FC\CC-pVDZ\C20H14N2O2\KA_PR7831\14-Aug-2025\0\\
 #P mp2/cc-pvdz polar=Cubic\\p1\\0,1\C,0,-7.1170523,2.8813039,-0.257468
 7\C,0,-5.8585338,3.5246054,-0.2419277\C,0,-4.6759319,2.8165593,-0.1401
 091\C,0,-4.6838196,1.4079505,-0.049515\C,0,-3.4736019,0.6543054,0.0680
 186\C,0,-3.4900693,-0.7099798,0.1525104\C,0,-4.7144884,-1.4586122,0.11
 95282\C,0,-4.7401562,-2.8895691,0.1959212\C,0,-6.0017785,-3.5275768,0.
 1791213\C,0,-7.1889783,-2.8170017,0.104987\C,0,-7.1921251,-1.4113938,0
 .0192863\C,0,-8.4019629,-0.6561424,-0.0813763\C,0,-8.3926061,0.7074489
 ,-0.1719782\C,0,-7.1637407,1.4519835,-0.167622\C,0,-5.93302,0.7127777,
 -0.0660606\C,0,-5.942931,-0.7202226,0.0224268\C,0,-8.340456,3.6612268,
 -0.3617395\C,0,-3.5087622,-3.6714398,0.2756172\C,0,-8.4535871,5.001685
 5,-0.4508519\C,0,-3.417984,-4.9458496,0.7380511\N,0,-2.2938711,-5.7297
 538,0.7266201\N,0,-9.7634148,5.6214673,-0.5483128\O,0,-9.7697048,6.845
 6853,-0.6238281\O,0,-10.7667086,4.9178727,-0.5508402\H,0,-5.8145398,4.
 6132969,-0.3105052\H,0,-3.7193809,3.345593,-0.1278963\H,0,-2.5238254,1
 .1953579,0.0961841\H,0,-2.5430246,-1.2392522,0.259084\H,0,-6.0456585,-
 4.6186967,0.1911045\H,0,-8.1428013,-3.3520833,0.0882418\H,0,-9.3536128
 ,-1.1952584,-0.0855989\H,0,-9.3448657,1.2314265,-0.2472057\H,0,-9.2979
 741,3.1380786,-0.3721304\H,0,-2.5833631,-3.1990301,-0.0658554\H,0,-7.6
 590533,5.744552,-0.4611987\H,0,-4.2997802,-5.4506656,1.1461893\H,0,-2.
 2416446,-6.5107664,1.3680919\H,0,-1.4031905,-5.302423,0.4982069\\Versi
 on=ES64L-G16RevC.01\State=1-A\HF=-1024.1004182\MP2=-1027.4087359\RMSD=
 5.356e-09\Dipole=2.4337601,-2.5039733,0.6027712\Polar=318.2212023,-119
 .1264037,495.3747969,19.8849366,-40.3463341,83.5996493\HyperPolar=-249
 9.0804552,3665.6283569,-5555.5500207,9944.5407017,-397.9312119,578.776
 2167,-984.1013568,-46.9937333,78.1664625,2.14499\DQPolar=138.1474169,1
 8.7178557,-156.8652726,-269.8199617,29.8766101,-33.9948316,68.3374856,
 -274.077919,205.7404334,294.8510357,-74.5627013,124.2738092,-54.670035
 8,96.0598993,-41.3898636,-63.9727004,68.1282991,-110.4267671\Quadrupol
 e=2.0640638,5.1381546,-7.2022184,4.8822436,2.0011477,-5.7508657\PG=C01
  [X(C20H14N2O2)]\\@
 The archive entry for this job was punched.


 I WANT TO KNOW HOW GOD CREATED THE WORLD.  I AM NOT INTERESTED IN
 THIS OR THAT PHENOMENON, IN THE SPECTRUM OF THIS OR THAT ELEMENT.
 I WANT TO KNOW HIS THOUGHTS, THE REST ARE DETAILS.
     -- ALBERT EINSTEIN
 Job cpu time:       5 days 19 hours 15 minutes  3.8 seconds.
 Elapsed time:       0 days 17 hours 27 minutes 41.7 seconds.
 File lengths (MBytes):  RWF= 202010 Int=      0 D2E=      0 Chk=     62 Scr=      1
 Normal termination of Gaussian 16 at Thu Aug 14 09:39:38 2025.
