36
* (null), Energy   -1000.0000000
C    -7.212432    2.889435   -0.266583   -0.005561    0.010021    0.131804
C    -5.953645    3.528889   -0.267061   -0.005164    0.009030    0.113223
C    -4.769868    2.820514   -0.165230   -0.002079    0.003442    0.040753
C    -4.777357    1.415127   -0.055953   -0.000612    0.000910    0.007359
C    -3.565597    0.660884    0.049363    0.000375   -0.000887   -0.015851
C    -3.579675   -0.700609    0.154824    0.000657   -0.001229   -0.020554
C    -4.806876   -1.449098    0.166918    0.000372   -0.000719   -0.011783
C    -4.838069   -2.876521    0.276773    0.000573   -0.000773   -0.013023
C    -6.099591   -3.512431    0.280659    0.000811   -0.001310   -0.017899
C    -7.285271   -2.803960    0.180477    0.000955   -0.001936   -0.023889
C    -7.285298   -1.400419    0.070041    0.000431   -0.001184   -0.014504
C    -8.496231   -0.646231   -0.033392    0.001078   -0.003125   -0.036479
C    -8.486265    0.715318   -0.140553    0.000091   -0.001359   -0.014070
C    -7.257369    1.461788   -0.154739   -0.002769    0.004779    0.064042
C    -6.027024    0.721977   -0.049598   -0.001134    0.001871    0.023228
C    -6.036183   -0.709932    0.062608   -0.000092   -0.000046   -0.001371
C    -8.438895    3.673839   -0.378057   -0.011841    0.023026    0.290167
C    -3.602468   -3.653096    0.383625    0.000442   -0.000224   -0.007214
C    -8.543911    5.022298   -0.497290    0.017736   -0.042837   -0.479516
C    -3.496756   -4.994715    0.461400    0.000889   -0.000459   -0.011961
C    -9.804390    5.680357   -0.598908    0.006158   -0.010325   -0.126516
O    -2.286890   -5.595715    0.560485    0.000451    0.000141   -0.002875
N   -10.823965    6.234831   -0.683325   -0.002314    0.013461    0.132363
H    -5.904615    4.616222   -0.349191   -0.011814    0.020301    0.257673
H    -3.813126    3.349429   -0.168197   -0.003011    0.005262    0.062811
H    -2.614563    1.200385    0.043819    0.000732   -0.001620   -0.026060
H    -2.627750   -1.224809    0.231823    0.001251   -0.002346   -0.035433
H    -6.154316   -4.599389    0.367966    0.001017   -0.001469   -0.019739
H    -8.240219   -3.336890    0.188690    0.001433   -0.002971   -0.035429
H    -9.447682   -1.185492   -0.024658    0.003018   -0.007376   -0.087905
H    -9.440889    1.235018   -0.215362    0.002963   -0.007288   -0.091993
H    -9.381424    3.124618   -0.365289   -0.043444    0.097042    1.155014
H    -2.650459   -3.120807    0.403885   -0.000289    0.000653    0.004606
H    -7.667915    5.676572   -0.521479    0.055012   -0.129246   -1.466942
H    -4.364097   -5.664339    0.448376    0.001584   -0.001142   -0.023291
H    -2.396698   -6.553047    0.603131    0.000880   -0.000170   -0.008767
36
* Frequency(7)  -46.0888
C    -7.213064    2.890574   -0.251604   -0.005561    0.010021    0.131804
C    -5.954232    3.529915   -0.254194   -0.005164    0.009030    0.113223
C    -4.770104    2.820905   -0.160598   -0.002079    0.003442    0.040753
C    -4.777426    1.415231   -0.055117   -0.000612    0.000910    0.007359
C    -3.565555    0.660783    0.047561    0.000375   -0.000887   -0.015851
C    -3.579600   -0.700749    0.152489    0.000657   -0.001229   -0.020554
C    -4.806834   -1.449180    0.165579    0.000372   -0.000719   -0.011783
C    -4.838004   -2.876609    0.275293    0.000573   -0.000773   -0.013023
C    -6.099499   -3.512580    0.278625    0.000811   -0.001310   -0.017899
C    -7.285162   -2.804180    0.177762    0.000955   -0.001936   -0.023889
C    -7.285249   -1.400554    0.068392    0.000431   -0.001184   -0.014504
C    -8.496109   -0.646586   -0.037538    0.001078   -0.003125   -0.036479
C    -8.486255    0.715164   -0.142152    0.000091   -0.001359   -0.014070
C    -7.257684    1.462331   -0.147461   -0.002769    0.004779    0.064042
C    -6.027153    0.722189   -0.046958   -0.001134    0.001871    0.023228
C    -6.036193   -0.709938    0.062452   -0.000092   -0.000046   -0.001371
C    -8.440241    3.676456   -0.345082   -0.011841    0.023026    0.290167
C    -3.602418   -3.653122    0.382805    0.000442   -0.000224   -0.007214
C    -8.541895    5.017430   -0.551785    0.017736   -0.042837   -0.479516
C    -3.496655   -4.994767    0.460040    0.000889   -0.000459   -0.011961
C    -9.803691    5.679184   -0.613285    0.006158   -0.010325   -0.126516
O    -2.286839   -5.595699    0.560158    0.000451    0.000141   -0.002875
N   -10.824228    6.236361   -0.668282   -0.002314    0.013461    0.132363
H    -5.905957    4.618529   -0.319907   -0.011814    0.020301    0.257673
H    -3.813468    3.350027   -0.161058   -0.003011    0.005262    0.062811
H    -2.614480    1.200201    0.040857    0.000732   -0.001620   -0.026060
H    -2.627607   -1.225075    0.227796    0.001251   -0.002346   -0.035433
H    -6.154200   -4.599556    0.365722    0.001017   -0.001469   -0.019739
H    -8.240056   -3.337228    0.184663    0.001433   -0.002971   -0.035429
H    -9.447339   -1.186330   -0.034648    0.003018   -0.007376   -0.087905
H    -9.440552    1.234189   -0.225816    0.002963   -0.007288   -0.091993
H    -9.386362    3.135646   -0.234028   -0.043444    0.097042    1.155014
H    -2.650492   -3.120733    0.404409   -0.000289    0.000653    0.004606
H    -7.661663    5.661884   -0.688189    0.055012   -0.129246   -1.466942
H    -4.363917   -5.664468    0.445729    0.001584   -0.001142   -0.023291
H    -2.396598   -6.553066    0.602135    0.000880   -0.000170   -0.008767
36
* Frequency(7)  -46.0888
C    -7.213628    2.891590   -0.238248   -0.005561    0.010021    0.131804
C    -5.954755    3.530830   -0.242721   -0.005164    0.009030    0.113223
C    -4.770315    2.821254   -0.156469   -0.002079    0.003442    0.040753
C    -4.777488    1.415323   -0.054371   -0.000612    0.000910    0.007359
C    -3.565517    0.660693    0.045955    0.000375   -0.000887   -0.015851
C    -3.579534   -0.700873    0.150406    0.000657   -0.001229   -0.020554
C    -4.806796   -1.449253    0.164385    0.000372   -0.000719   -0.011783
C    -4.837946   -2.876688    0.273974    0.000573   -0.000773   -0.013023
C    -6.099416   -3.512712    0.276811    0.000811   -0.001310   -0.017899
C    -7.285066   -2.804376    0.175342    0.000955   -0.001936   -0.023889
C    -7.285206   -1.400674    0.066923    0.000431   -0.001184   -0.014504
C    -8.496000   -0.646903   -0.041234    0.001078   -0.003125   -0.036479
C    -8.486246    0.715026   -0.143578    0.000091   -0.001359   -0.014070
C    -7.257965    1.462815   -0.140971   -0.002769    0.004779    0.064042
C    -6.027268    0.722379   -0.044605   -0.001134    0.001871    0.023228
C    -6.036203   -0.709942    0.062313   -0.000092   -0.000046   -0.001371
C    -8.441441    3.678789   -0.315679   -0.011841    0.023026    0.290167
C    -3.602373   -3.653145    0.382074    0.000442   -0.000224   -0.007214
C    -8.540098    5.013089   -0.600374    0.017736   -0.042837   -0.479516
C    -3.496565   -4.994814    0.458828    0.000889   -0.000459   -0.011961
C    -9.803067    5.678137   -0.626105    0.006158   -0.010325   -0.126516
O    -2.286793   -5.595684    0.559867    0.000451    0.000141   -0.002875
N   -10.824462    6.237725   -0.654870   -0.002314    0.013461    0.132363
H    -5.907154    4.620586   -0.293797   -0.011814    0.020301    0.257673
H    -3.813773    3.350560   -0.154694   -0.003011    0.005262    0.062811
H    -2.614405    1.200037    0.038216    0.000732   -0.001620   -0.026060
H    -2.627481   -1.225313    0.224206    0.001251   -0.002346   -0.035433
H    -6.154097   -4.599705    0.363722    0.001017   -0.001469   -0.019739
H    -8.239911   -3.337529    0.181074    0.001433   -0.002971   -0.035429
H    -9.447033   -1.187077   -0.043556    0.003018   -0.007376   -0.087905
H    -9.440252    1.233451   -0.235138    0.002963   -0.007288   -0.091993
H    -9.390764    3.145480   -0.116991   -0.043444    0.097042    1.155014
H    -2.650522   -3.120666    0.404875   -0.000289    0.000653    0.004606
H    -7.656089    5.648787   -0.836834    0.055012   -0.129246   -1.466942
H    -4.363756   -5.664584    0.443369    0.001584   -0.001142   -0.023291
H    -2.396509   -6.553084    0.601247    0.000880   -0.000170   -0.008767
36
* Frequency(7)  -46.0888
C    -7.214061    2.892372   -0.227963   -0.005561    0.010021    0.131804
C    -5.955158    3.531535   -0.233886   -0.005164    0.009030    0.113223
C    -4.770477    2.821522   -0.153289   -0.002079    0.003442    0.040753
C    -4.777536    1.415394   -0.053797   -0.000612    0.000910    0.007359
C    -3.565488    0.660624    0.044718    0.000375   -0.000887   -0.015851
C    -3.579482   -0.700969    0.148802    0.000657   -0.001229   -0.020554
C    -4.806767   -1.449309    0.163466    0.000372   -0.000719   -0.011783
C    -4.837901   -2.876748    0.272957    0.000573   -0.000773   -0.013023
C    -6.099353   -3.512815    0.275415    0.000811   -0.001310   -0.017899
C    -7.284991   -2.804527    0.173478    0.000955   -0.001936   -0.023889
C    -7.285172   -1.400766    0.065791    0.000431   -0.001184   -0.014504
C    -8.495916   -0.647147   -0.044081    0.001078   -0.003125   -0.036479
C    -8.486239    0.714920   -0.144676    0.000091   -0.001359   -0.014070
C    -7.258181    1.463188   -0.135974   -0.002769    0.004779    0.064042
C    -6.027356    0.722525   -0.042792   -0.001134    0.001871    0.023228
C    -6.036210   -0.709946    0.062206   -0.000092   -0.000046   -0.001371
C    -8.442365    3.680586   -0.293036   -0.011841    0.023026    0.290167
C    -3.602339   -3.653162    0.381511    0.000442   -0.000224   -0.007214
C    -8.538714    5.009746   -0.637793    0.017736   -0.042837   -0.479516
C    -3.496496   -4.994850    0.457895    0.000889   -0.000459   -0.011961
C    -9.802586    5.677332   -0.635978    0.006158   -0.010325   -0.126516
O    -2.286758   -5.595673    0.559642    0.000451    0.000141   -0.002875
N   -10.824643    6.238775   -0.644541   -0.002314    0.013461    0.132363
H    -5.908076    4.622170   -0.273690   -0.011814    0.020301    0.257673
H    -3.814008    3.350971   -0.149792   -0.003011    0.005262    0.062811
H    -2.614348    1.199910    0.036183    0.000732   -0.001620   -0.026060
H    -2.627383   -1.225496    0.221441    0.001251   -0.002346   -0.035433
H    -6.154018   -4.599819    0.362182    0.001017   -0.001469   -0.019739
H    -8.239799   -3.337761    0.178309    0.001433   -0.002971   -0.035429
H    -9.446798   -1.187653   -0.050415    0.003018   -0.007376   -0.087905
H    -9.440021    1.232882   -0.242316    0.002963   -0.007288   -0.091993
H    -9.394154    3.153052   -0.026861   -0.043444    0.097042    1.155014
H    -2.650544   -3.120616    0.405235   -0.000289    0.000653    0.004606
H    -7.651796    5.638702   -0.951305    0.055012   -0.129246   -1.466942
H    -4.363633   -5.664673    0.441552    0.001584   -0.001142   -0.023291
H    -2.396440   -6.553097    0.600562    0.000880   -0.000170   -0.008767
36
* Frequency(7)  -46.0888
C    -7.214319    2.892835   -0.221863   -0.005561    0.010021    0.131804
C    -5.955397    3.531953   -0.228646   -0.005164    0.009030    0.113223
C    -4.770573    2.821682   -0.151403   -0.002079    0.003442    0.040753
C    -4.777564    1.415436   -0.053456   -0.000612    0.000910    0.007359
C    -3.565470    0.660583    0.043985    0.000375   -0.000887   -0.015851
C    -3.579452   -0.701026    0.147851    0.000657   -0.001229   -0.020554
C    -4.806750   -1.449342    0.162921    0.000372   -0.000719   -0.011783
C    -4.837874   -2.876784    0.272355    0.000573   -0.000773   -0.013023
C    -6.099315   -3.512875    0.274586    0.000811   -0.001310   -0.017899
C    -7.284947   -2.804617    0.172372    0.000955   -0.001936   -0.023889
C    -7.285152   -1.400821    0.065120    0.000431   -0.001184   -0.014504
C    -8.495866   -0.647292   -0.045769    0.001078   -0.003125   -0.036479
C    -8.486234    0.714857   -0.145327    0.000091   -0.001359   -0.014070
C    -7.258309    1.463409   -0.133010   -0.002769    0.004779    0.064042
C    -6.027409    0.722612   -0.041717   -0.001134    0.001871    0.023228
C    -6.036214   -0.709948    0.062143   -0.000092   -0.000046   -0.001371
C    -8.442913    3.681652   -0.279607   -0.011841    0.023026    0.290167
C    -3.602318   -3.653172    0.381177    0.000442   -0.000224   -0.007214
C    -8.537893    5.007764   -0.659985    0.017736   -0.042837   -0.479516
C    -3.496455   -4.994871    0.457341    0.000889   -0.000459   -0.011961
C    -9.802301    5.676854   -0.641833    0.006158   -0.010325   -0.126516
O    -2.286737   -5.595667    0.559509    0.000451    0.000141   -0.002875
N   -10.824750    6.239398   -0.638415   -0.002314    0.013461    0.132363
H    -5.908623    4.623110   -0.261765   -0.011814    0.020301    0.257673
H    -3.814148    3.351214   -0.146885   -0.003011    0.005262    0.062811
H    -2.614314    1.199835    0.034977    0.000732   -0.001620   -0.026060
H    -2.627325   -1.225604    0.219801    0.001251   -0.002346   -0.035433
H    -6.153971   -4.599887    0.361268    0.001017   -0.001469   -0.019739
H    -8.239733   -3.337898    0.176669    0.001433   -0.002971   -0.035429
H    -9.446658   -1.187994   -0.054484    0.003018   -0.007376   -0.087905
H    -9.439884    1.232545   -0.246574    0.002963   -0.007288   -0.091993
H    -9.396165    3.157543    0.026596   -0.043444    0.097042    1.155014
H    -2.650558   -3.120585    0.405448   -0.000289    0.000653    0.004606
H    -7.649250    5.632720   -1.019198    0.055012   -0.129246   -1.466942
H    -4.363559   -5.664726    0.440474    0.001584   -0.001142   -0.023291
H    -2.396400   -6.553105    0.600157    0.000880   -0.000170   -0.008767
36
* Frequency(7)  -46.0888
C    -7.214372    2.892931   -0.220609   -0.005561    0.010021    0.131804
C    -5.955447    3.532039   -0.227569   -0.005164    0.009030    0.113223
C    -4.770593    2.821714   -0.151015   -0.002079    0.003442    0.040753
C    -4.777570    1.415445   -0.053386   -0.000612    0.000910    0.007359
C    -3.565467    0.660574    0.043834    0.000375   -0.000887   -0.015851
C    -3.579446   -0.701038    0.147655    0.000657   -0.001229   -0.020554
C    -4.806747   -1.449349    0.162808    0.000372   -0.000719   -0.011783
C    -4.837869   -2.876791    0.272231    0.000573   -0.000773   -0.013023
C    -6.099308   -3.512888    0.274416    0.000811   -0.001310   -0.017899
C    -7.284938   -2.804635    0.172145    0.000955   -0.001936   -0.023889
C    -7.285148   -1.400832    0.064982    0.000431   -0.001184   -0.014504
C    -8.495855   -0.647321   -0.046116    0.001078   -0.003125   -0.036479
C    -8.486234    0.714844   -0.145461    0.000091   -0.001359   -0.014070
C    -7.258335    1.463455   -0.132401   -0.002769    0.004779    0.064042
C    -6.027419    0.722629   -0.041496   -0.001134    0.001871    0.023228
C    -6.036215   -0.709949    0.062130   -0.000092   -0.000046   -0.001371
C    -8.443025    3.681871   -0.276846   -0.011841    0.023026    0.290167
C    -3.602314   -3.653174    0.381108    0.000442   -0.000224   -0.007214
C    -8.537724    5.007356   -0.664548    0.017736   -0.042837   -0.479516
C    -3.496446   -4.994875    0.457228    0.000889   -0.000459   -0.011961
C    -9.802242    5.676756   -0.643037    0.006158   -0.010325   -0.126516
O    -2.286732   -5.595666    0.559482    0.000451    0.000141   -0.002875
N   -10.824772    6.239527   -0.637156   -0.002314    0.013461    0.132363
H    -5.908735    4.623303   -0.259313   -0.011814    0.020301    0.257673
H    -3.814176    3.351264   -0.146288   -0.003011    0.005262    0.062811
H    -2.614307    1.199820    0.034729    0.000732   -0.001620   -0.026060
H    -2.627313   -1.225627    0.219464    0.001251   -0.002346   -0.035433
H    -6.153961   -4.599901    0.361081    0.001017   -0.001469   -0.019739
H    -8.239719   -3.337927    0.176332    0.001433   -0.002971   -0.035429
H    -9.446630   -1.188064   -0.055320    0.003018   -0.007376   -0.087905
H    -9.439856    1.232475   -0.247449    0.002963   -0.007288   -0.091993
H    -9.396578    3.158467    0.037585   -0.043444    0.097042    1.155014
H    -2.650560   -3.120579    0.405492   -0.000289    0.000653    0.004606
H    -7.648727    5.631490   -1.033155    0.055012   -0.129246   -1.466942
H    -4.363544   -5.664737    0.440252    0.001584   -0.001142   -0.023291
H    -2.396391   -6.553106    0.600073    0.000880   -0.000170   -0.008767
36
* Frequency(7)  -46.0888
C    -7.214214    2.892647   -0.224337   -0.005561    0.010021    0.131804
C    -5.955300    3.531784   -0.230771   -0.005164    0.009030    0.113223
C    -4.770534    2.821617   -0.152168   -0.002079    0.003442    0.040753
C    -4.777553    1.415419   -0.053594   -0.000612    0.000910    0.007359
C    -3.565477    0.660599    0.044282    0.000375   -0.000887   -0.015851
C    -3.579464   -0.701003    0.148236    0.000657   -0.001229   -0.020554
C    -4.806757   -1.449329    0.163142    0.000372   -0.000719   -0.011783
C    -4.837885   -2.876769    0.272599    0.000573   -0.000773   -0.013023
C    -6.099331   -3.512851    0.274922    0.000811   -0.001310   -0.017899
C    -7.284965   -2.804580    0.172820    0.000955   -0.001936   -0.023889
C    -7.285160   -1.400799    0.065392    0.000431   -0.001184   -0.014504
C    -8.495886   -0.647233   -0.045084    0.001078   -0.003125   -0.036479
C    -8.486236    0.714883   -0.145063    0.000091   -0.001359   -0.014070
C    -7.258257    1.463319   -0.134212   -0.002769    0.004779    0.064042
C    -6.027387    0.722576   -0.042153   -0.001134    0.001871    0.023228
C    -6.036212   -0.709947    0.062169   -0.000092   -0.000046   -0.001371
C    -8.442691    3.681219   -0.285053   -0.011841    0.023026    0.290167
C    -3.602326   -3.653168    0.381313    0.000442   -0.000224   -0.007214
C    -8.538226    5.008568   -0.650985    0.017736   -0.042837   -0.479516
C    -3.496471   -4.994862    0.457566    0.000889   -0.000459   -0.011961
C    -9.802417    5.677048   -0.639459    0.006158   -0.010325   -0.126516
O    -2.286745   -5.595670    0.559563    0.000451    0.000141   -0.002875
N   -10.824707    6.239146   -0.640900   -0.002314    0.013461    0.132363
H    -5.908401    4.622729   -0.266601   -0.011814    0.020301    0.257673
H    -3.814091    3.351115   -0.148064   -0.003011    0.005262    0.062811
H    -2.614328    1.199866    0.035466    0.000732   -0.001620   -0.026060
H    -2.627348   -1.225560    0.220466    0.001251   -0.002346   -0.035433
H    -6.153990   -4.599860    0.361639    0.001017   -0.001469   -0.019739
H    -8.239760   -3.337843    0.177334    0.001433   -0.002971   -0.035429
H    -9.446715   -1.187856   -0.052834    0.003018   -0.007376   -0.087905
H    -9.439940    1.232682   -0.244847    0.002963   -0.007288   -0.091993
H    -9.395349    3.155722    0.004917   -0.043444    0.097042    1.155014
H    -2.650552   -3.120598    0.405361   -0.000289    0.000653    0.004606
H    -7.650283    5.635146   -0.991664    0.055012   -0.129246   -1.466942
H    -4.363589   -5.664705    0.440911    0.001584   -0.001142   -0.023291
H    -2.396416   -6.553102    0.600321    0.000880   -0.000170   -0.008767
36
* Frequency(7)  -46.0888
C    -7.213864    2.892016   -0.232643   -0.005561    0.010021    0.131804
C    -5.954975    3.531214   -0.237906   -0.005164    0.009030    0.113223
C    -4.770403    2.821400   -0.154736   -0.002079    0.003442    0.040753
C    -4.777514    1.415362   -0.054058   -0.000612    0.000910    0.007359
C    -3.565501    0.660655    0.045281    0.000375   -0.000887   -0.015851
C    -3.579506   -0.700925    0.149532    0.000657   -0.001229   -0.020554
C    -4.806780   -1.449283    0.163884    0.000372   -0.000719   -0.011783
C    -4.837921   -2.876721    0.273420    0.000573   -0.000773   -0.013023
C    -6.099382   -3.512768    0.276050    0.000811   -0.001310   -0.017899
C    -7.285025   -2.804458    0.174326    0.000955   -0.001936   -0.023889
C    -7.285187   -1.400724    0.066306    0.000431   -0.001184   -0.014504
C    -8.495954   -0.647036   -0.042786    0.001078   -0.003125   -0.036479
C    -8.486242    0.714968   -0.144176    0.000091   -0.001359   -0.014070
C    -7.258082    1.463018   -0.138248   -0.002769    0.004779    0.064042
C    -6.027316    0.722459   -0.043617   -0.001134    0.001871    0.023228
C    -6.036206   -0.709944    0.062255   -0.000092   -0.000046   -0.001371
C    -8.441944    3.679768   -0.303339   -0.011841    0.023026    0.290167
C    -3.602354   -3.653154    0.381767    0.000442   -0.000224   -0.007214
C    -8.539343    5.011267   -0.620767    0.017736   -0.042837   -0.479516
C    -3.496527   -4.994833    0.458320    0.000889   -0.000459   -0.011961
C    -9.802805    5.677698   -0.631486    0.006158   -0.010325   -0.126516
O    -2.286774   -5.595678    0.559744    0.000451    0.000141   -0.002875
N   -10.824561    6.238298   -0.649241   -0.002314    0.013461    0.132363
H    -5.907657    4.621449   -0.282839   -0.011814    0.020301    0.257673
H    -3.813901    3.350784   -0.152023   -0.003011    0.005262    0.062811
H    -2.614374    1.199968    0.037108    0.000732   -0.001620   -0.026060
H    -2.627427   -1.225413    0.222699    0.001251   -0.002346   -0.035433
H    -6.154054   -4.599767    0.362883    0.001017   -0.001469   -0.019739
H    -8.239850   -3.337655    0.179567    0.001433   -0.002971   -0.035429
H    -9.446905   -1.187391   -0.047294    0.003018   -0.007376   -0.087905
H    -9.440126    1.233141   -0.239050    0.002963   -0.007288   -0.091993
H    -9.392611    3.149607   -0.067869   -0.043444    0.097042    1.155014
H    -2.650534   -3.120639    0.405071   -0.000289    0.000653    0.004606
H    -7.653749    5.643291   -0.899221    0.055012   -0.129246   -1.466942
H    -4.363689   -5.664633    0.442379    0.001584   -0.001142   -0.023291
H    -2.396472   -6.553091    0.600874    0.000880   -0.000170   -0.008767
36
* Frequency(7)  -46.0888
C    -7.213358    2.891105   -0.244627   -0.005561    0.010021    0.131804
C    -5.954506    3.530393   -0.248200   -0.005164    0.009030    0.113223
C    -4.770214    2.821087   -0.158441   -0.002079    0.003442    0.040753
C    -4.777459    1.415279   -0.054727   -0.000612    0.000910    0.007359
C    -3.565535    0.660736    0.046722    0.000375   -0.000887   -0.015851
C    -3.579565   -0.700814    0.151401    0.000657   -0.001229   -0.020554
C    -4.806814   -1.449218    0.164956    0.000372   -0.000719   -0.011783
C    -4.837973   -2.876650    0.274604    0.000573   -0.000773   -0.013023
C    -6.099456   -3.512649    0.277678    0.000811   -0.001310   -0.017899
C    -7.285112   -2.804282    0.176498    0.000955   -0.001936   -0.023889
C    -7.285226   -1.400616    0.067625    0.000431   -0.001184   -0.014504
C    -8.496052   -0.646752   -0.039469    0.001078   -0.003125   -0.036479
C    -8.486250    0.715092   -0.142897    0.000091   -0.001359   -0.014070
C    -7.257831    1.462584   -0.144071   -0.002769    0.004779    0.064042
C    -6.027213    0.722288   -0.045729   -0.001134    0.001871    0.023228
C    -6.036198   -0.709940    0.062380   -0.000092   -0.000046   -0.001371
C    -8.440868    3.677675   -0.329721   -0.011841    0.023026    0.290167
C    -3.602395   -3.653134    0.382423    0.000442   -0.000224   -0.007214
C    -8.540956    5.015162   -0.577169    0.017736   -0.042837   -0.479516
C    -3.496608   -4.994792    0.459407    0.000889   -0.000459   -0.011961
C    -9.803365    5.678637   -0.619983    0.006158   -0.010325   -0.126516
O    -2.286815   -5.595691    0.560006    0.000451    0.000141   -0.002875
N   -10.824350    6.237074   -0.661276   -0.002314    0.013461    0.132363
H    -5.906583    4.619603   -0.306267   -0.011814    0.020301    0.257673
H    -3.813628    3.350305   -0.157733   -0.003011    0.005262    0.062811
H    -2.614441    1.200115    0.039478    0.000732   -0.001620   -0.026060
H    -2.627541   -1.225199    0.225920    0.001251   -0.002346   -0.035433
H    -6.154146   -4.599633    0.364678    0.001017   -0.001469   -0.019739
H    -8.239981   -3.337385    0.182788    0.001433   -0.002971   -0.035429
H    -9.447179   -1.186720   -0.039302    0.003018   -0.007376   -0.087905
H    -9.440396    1.233804   -0.230686    0.002963   -0.007288   -0.091993
H    -9.388661    3.140783   -0.172885   -0.043444    0.097042    1.155014
H    -2.650508   -3.120698    0.404652   -0.000289    0.000653    0.004606
H    -7.658751    5.655042   -0.765844    0.055012   -0.129246   -1.466942
H    -4.363833   -5.664529    0.444496    0.001584   -0.001142   -0.023291
H    -2.396552   -6.553075    0.601671    0.000880   -0.000170   -0.008767
36
* Frequency(7)  -46.0888
C    -7.212752    2.890013   -0.258990   -0.005561    0.010021    0.131804
C    -5.953943    3.529409   -0.260539   -0.005164    0.009030    0.113223
C    -4.769988    2.820712   -0.162882   -0.002079    0.003442    0.040753
C    -4.777392    1.415180   -0.055529   -0.000612    0.000910    0.007359
C    -3.565576    0.660833    0.048450    0.000375   -0.000887   -0.015851
C    -3.579637   -0.700680    0.153640    0.000657   -0.001229   -0.020554
C    -4.806855   -1.449139    0.166240    0.000372   -0.000719   -0.011783
C    -4.838036   -2.876566    0.276023    0.000573   -0.000773   -0.013023
C    -6.099544   -3.512506    0.279628    0.000811   -0.001310   -0.017899
C    -7.285216   -2.804071    0.179101    0.000955   -0.001936   -0.023889
C    -7.285273   -1.400487    0.069205    0.000431   -0.001184   -0.014504
C    -8.496169   -0.646411   -0.035494    0.001078   -0.003125   -0.036479
C    -8.486260    0.715240   -0.141364    0.000091   -0.001359   -0.014070
C    -7.257529    1.462063   -0.151050   -0.002769    0.004779    0.064042
C    -6.027089    0.722085   -0.048260   -0.001134    0.001871    0.023228
C    -6.036188   -0.709935    0.062529   -0.000092   -0.000046   -0.001371
C    -8.439578    3.675166   -0.361342   -0.011841    0.023026    0.290167
C    -3.602443   -3.653109    0.383209    0.000442   -0.000224   -0.007214
C    -8.542889    5.019830   -0.524914    0.017736   -0.042837   -0.479516
C    -3.496705   -4.994742    0.460711    0.000889   -0.000459   -0.011961
C    -9.804036    5.679762   -0.606196    0.006158   -0.010325   -0.126516
O    -2.286864   -5.595706    0.560319    0.000451    0.000141   -0.002875
N   -10.824098    6.235607   -0.675700   -0.002314    0.013461    0.132363
H    -5.905295    4.617391   -0.334347   -0.011814    0.020301    0.257673
H    -3.813299    3.349732   -0.164578   -0.003011    0.005262    0.062811
H    -2.614521    1.200291    0.042317    0.000732   -0.001620   -0.026060
H    -2.627677   -1.224944    0.229782    0.001251   -0.002346   -0.035433
H    -6.154257   -4.599473    0.366829    0.001017   -0.001469   -0.019739
H    -8.240137   -3.337061    0.186649    0.001433   -0.002971   -0.035429
H    -9.447508   -1.185917   -0.029723    0.003018   -0.007376   -0.087905
H    -9.440718    1.234598   -0.220661    0.002963   -0.007288   -0.091993
H    -9.383927    3.130208   -0.298751   -0.043444    0.097042    1.155014
H    -2.650476   -3.120769    0.404150   -0.000289    0.000653    0.004606
H    -7.664746    5.669126   -0.605987    0.055012   -0.129246   -1.466942
H    -4.364006   -5.664404    0.447034    0.001584   -0.001142   -0.023291
H    -2.396648   -6.553057    0.602626    0.000880   -0.000170   -0.008767
36
* Frequency(7)  -46.0888
C    -7.212112    2.888858   -0.274176   -0.005561    0.010021    0.131804
C    -5.953348    3.528369   -0.273584   -0.005164    0.009030    0.113223
C    -4.769748    2.820315   -0.167578   -0.002079    0.003442    0.040753
C    -4.777322    1.415075   -0.056377   -0.000612    0.000910    0.007359
C    -3.565619    0.660935    0.050276    0.000375   -0.000887   -0.015851
C    -3.579713   -0.700538    0.156009    0.000657   -0.001229   -0.020554
C    -4.806898   -1.449057    0.167597    0.000372   -0.000719   -0.011783
C    -4.838102   -2.876477    0.277523    0.000573   -0.000773   -0.013023
C    -6.099637   -3.512355    0.281690    0.000811   -0.001310   -0.017899
C    -7.285326   -2.803848    0.181853    0.000955   -0.001936   -0.023889
C    -7.285323   -1.400351    0.070876    0.000431   -0.001184   -0.014504
C    -8.496293   -0.646051   -0.031291    0.001078   -0.003125   -0.036479
C    -8.486271    0.715397   -0.139742    0.000091   -0.001359   -0.014070
C    -7.257210    1.461512   -0.158428   -0.002769    0.004779    0.064042
C    -6.026958    0.721869   -0.050936   -0.001134    0.001871    0.023228
C    -6.036178   -0.709930    0.062687   -0.000092   -0.000046   -0.001371
C    -8.438213    3.672513   -0.394773   -0.011841    0.023026    0.290167
C    -3.602494   -3.653083    0.384040    0.000442   -0.000224   -0.007214
C    -8.544932    5.024766   -0.469666    0.017736   -0.042837   -0.479516
C    -3.496807   -4.994689    0.462089    0.000889   -0.000459   -0.011961
C    -9.804745    5.680952   -0.591619    0.006158   -0.010325   -0.126516
O    -2.286916   -5.595723    0.560650    0.000451    0.000141   -0.002875
N   -10.823832    6.234056   -0.690950   -0.002314    0.013461    0.132363
H    -5.903934    4.615052   -0.364035   -0.011814    0.020301    0.257673
H    -3.812952    3.349126   -0.171815   -0.003011    0.005262    0.062811
H    -2.614605    1.200478    0.045320    0.000732   -0.001620   -0.026060
H    -2.627822   -1.224673    0.233864    0.001251   -0.002346   -0.035433
H    -6.154374   -4.599304    0.369103    0.001017   -0.001469   -0.019739
H    -8.240302   -3.336719    0.190731    0.001433   -0.002971   -0.035429
H    -9.447856   -1.185067   -0.019594    0.003018   -0.007376   -0.087905
H    -9.441060    1.235438   -0.210062    0.002963   -0.007288   -0.091993
H    -9.378922    3.119028   -0.431827   -0.043444    0.097042    1.155014
H    -2.650443   -3.120844    0.403620   -0.000289    0.000653    0.004606
H    -7.671084    5.684018   -0.436971    0.055012   -0.129246   -1.466942
H    -4.364188   -5.664273    0.449718    0.001584   -0.001142   -0.023291