36
* (null), Energy   -1000.0000000
C    -7.212432    2.889435   -0.266583   -0.000645    0.001797    0.012413
C    -5.953645    3.528889   -0.267061   -0.000665    0.001614    0.009323
C    -4.769868    2.820514   -0.165230   -0.000883    0.002079    0.015407
C    -4.777357    1.415127   -0.055953   -0.001035    0.002250    0.016529
C    -3.565597    0.660884    0.049363   -0.001976    0.003716    0.035907
C    -3.579675   -0.700609    0.154824   -0.000942    0.002119    0.014089
C    -4.806876   -1.449098    0.166918    0.001971   -0.003887   -0.045428
C    -4.838069   -2.876521    0.276773    0.004890   -0.011484   -0.135352
C    -6.099591   -3.512431    0.280659    0.003746   -0.010089   -0.138992
C    -7.285271   -2.803960    0.180477    0.000680   -0.001285   -0.031433
C    -7.285298   -1.400419    0.070041   -0.000660    0.002499    0.014385
C    -8.496231   -0.646231   -0.033392   -0.001331    0.003819    0.035680
C    -8.486265    0.715318   -0.140553   -0.001372    0.003664    0.032923
C    -7.257369    1.461788   -0.154739   -0.000873    0.002187    0.019025
C    -6.027024    0.721977   -0.049598   -0.000556    0.001509    0.011726
C    -6.036183   -0.709932    0.062608    0.000290    0.000100   -0.004385
C    -8.438895    3.673839   -0.378057   -0.000482    0.001335    0.007985
C    -3.602468   -3.653096    0.383625    0.011417   -0.023500   -0.305887
C    -8.543911    5.022298   -0.497290   -0.000524    0.001162    0.005843
C    -3.496756   -4.994715    0.461400   -0.018776    0.014282    0.389621
C    -9.804390    5.680357   -0.598908   -0.000410    0.000593    0.001024
O    -2.286890   -5.595715    0.560485    0.009026    0.002161   -0.022190
N   -10.823965    6.234831   -0.683325   -0.000379    0.000183   -0.002126
H    -5.904615    4.616222   -0.349191   -0.000506    0.001224    0.004237
H    -3.813126    3.349429   -0.168197   -0.000974    0.002255    0.018632
H    -2.614563    1.200385    0.043819   -0.003456    0.006735    0.077106
H    -2.627750   -1.224809    0.231823   -0.001714    0.008477    0.064098
H    -6.154316   -4.599389    0.367966    0.006522   -0.025147   -0.326626
H    -8.240219   -3.336890    0.188690    0.001377   -0.002860   -0.054145
H    -9.447682   -1.185492   -0.024658   -0.001658    0.004581    0.047291
H    -9.440889    1.235018   -0.215362   -0.001755    0.004577    0.044290
H    -9.381424    3.124618   -0.365289   -0.000351    0.001042    0.004711
H    -2.650459   -3.120807    0.403885    0.053366   -0.068994   -1.110315
H    -7.667915    5.676572   -0.521479   -0.000689    0.001480    0.008551
H    -4.364097   -5.664339    0.448376   -0.064322    0.055321    1.335194
H    -2.396698   -6.553047    0.603131   -0.026857    0.040242    0.740552
36
* Frequency(6)  -74.1988
C    -7.212505    2.889640   -0.265172   -0.000645    0.001797    0.012413
C    -5.953721    3.529073   -0.266002   -0.000665    0.001614    0.009323
C    -4.769968    2.820750   -0.163479   -0.000883    0.002079    0.015407
C    -4.777475    1.415383   -0.054074   -0.001035    0.002250    0.016529
C    -3.565822    0.661306    0.053444   -0.001976    0.003716    0.035907
C    -3.579782   -0.700368    0.156426   -0.000942    0.002119    0.014089
C    -4.806652   -1.449540    0.161756    0.001971   -0.003887   -0.045428
C    -4.837513   -2.877827    0.261391    0.004890   -0.011484   -0.135352
C    -6.099165   -3.513577    0.264864    0.003746   -0.010089   -0.138992
C    -7.285194   -2.804106    0.176905    0.000680   -0.001285   -0.031433
C    -7.285373   -1.400135    0.071676   -0.000660    0.002499    0.014385
C    -8.496383   -0.645797   -0.029337   -0.001331    0.003819    0.035680
C    -8.486421    0.715735   -0.136812   -0.001372    0.003664    0.032923
C    -7.257468    1.462036   -0.152577   -0.000873    0.002187    0.019025
C    -6.027087    0.722148   -0.048266   -0.000556    0.001509    0.011726
C    -6.036150   -0.709921    0.062110    0.000290    0.000100   -0.004385
C    -8.438950    3.673991   -0.377150   -0.000482    0.001335    0.007985
C    -3.601171   -3.655767    0.348862    0.011417   -0.023500   -0.305887
C    -8.543970    5.022430   -0.496626   -0.000524    0.001162    0.005843
C    -3.498890   -4.993092    0.505678   -0.018776    0.014282    0.389621
C    -9.804437    5.680424   -0.598791   -0.000410    0.000593    0.001024
O    -2.285864   -5.595469    0.557963    0.009026    0.002161   -0.022190
N   -10.824008    6.234852   -0.683566   -0.000379    0.000183   -0.002126
H    -5.904672    4.616361   -0.348709   -0.000506    0.001224    0.004237
H    -3.813237    3.349685   -0.166079   -0.000974    0.002255    0.018632
H    -2.614956    1.201150    0.052581   -0.003456    0.006735    0.077106
H    -2.627944   -1.223845    0.239107   -0.001714    0.008477    0.064098
H    -6.153575   -4.602247    0.330846    0.006522   -0.025147   -0.326626
H    -8.240063   -3.337215    0.182536    0.001377   -0.002860   -0.054145
H    -9.447870   -1.184971   -0.019284   -0.001658    0.004581    0.047291
H    -9.441089    1.235538   -0.210328   -0.001755    0.004577    0.044290
H    -9.381464    3.124736   -0.364754   -0.000351    0.001042    0.004711
H    -2.644395   -3.128648    0.277704    0.053366   -0.068994   -1.110315
H    -7.667993    5.676740   -0.520507   -0.000689    0.001480    0.008551
H    -4.371407   -5.658052    0.600114   -0.064322    0.055321    1.335194
H    -2.399750   -6.548474    0.687291   -0.026857    0.040242    0.740552
36
* Frequency(6)  -74.1988
C    -7.212571    2.889822   -0.263915   -0.000645    0.001797    0.012413
C    -5.953788    3.529236   -0.265057   -0.000665    0.001614    0.009323
C    -4.770058    2.820961   -0.161918   -0.000883    0.002079    0.015407
C    -4.777579    1.415611   -0.052400   -0.001035    0.002250    0.016529
C    -3.566022    0.661683    0.057082   -0.001976    0.003716    0.035907
C    -3.579877   -0.700154    0.157853   -0.000942    0.002119    0.014089
C    -4.806453   -1.449934    0.157153    0.001971   -0.003887   -0.045428
C    -4.837018   -2.878990    0.247676    0.004890   -0.011484   -0.135352
C    -6.098785   -3.514600    0.250780    0.003746   -0.010089   -0.138992
C    -7.285125   -2.804236    0.173720    0.000680   -0.001285   -0.031433
C    -7.285440   -1.399882    0.073133   -0.000660    0.002499    0.014385
C    -8.496517   -0.645410   -0.025722   -0.001331    0.003819    0.035680
C    -8.486560    0.716106   -0.133475   -0.001372    0.003664    0.032923
C    -7.257557    1.462258   -0.150649   -0.000873    0.002187    0.019025
C    -6.027143    0.722301   -0.047077   -0.000556    0.001509    0.011726
C    -6.036121   -0.709911    0.061665    0.000290    0.000100   -0.004385
C    -8.438999    3.674126   -0.376341   -0.000482    0.001335    0.007985
C    -3.600014   -3.658148    0.317867    0.011417   -0.023500   -0.305887
C    -8.544023    5.022548   -0.496034   -0.000524    0.001162    0.005843
C    -3.500792   -4.991645    0.545158   -0.018776    0.014282    0.389621
C    -9.804479    5.680484   -0.598687   -0.000410    0.000593    0.001024
O    -2.284950   -5.595250    0.555714    0.009026    0.002161   -0.022190
N   -10.824046    6.234871   -0.683782   -0.000379    0.000183   -0.002126
H    -5.904723    4.616485   -0.348280   -0.000506    0.001224    0.004237
H    -3.813335    3.349913   -0.164191   -0.000974    0.002255    0.018632
H    -2.615306    1.201833    0.060395   -0.003456    0.006735    0.077106
H    -2.628118   -1.222986    0.245602   -0.001714    0.008477    0.064098
H    -6.152914   -4.604795    0.297749    0.006522   -0.025147   -0.326626
H    -8.239923   -3.337505    0.177050    0.001377   -0.002860   -0.054145
H    -9.448038   -1.184507   -0.014492   -0.001658    0.004581    0.047291
H    -9.441266    1.236002   -0.205840   -0.001755    0.004577    0.044290
H    -9.381500    3.124842   -0.364276   -0.000351    0.001042    0.004711
H    -2.638987   -3.135639    0.165196    0.053366   -0.068994   -1.110315
H    -7.668063    5.676890   -0.519641   -0.000689    0.001480    0.008551
H    -4.377924   -5.652446    0.735409   -0.064322    0.055321    1.335194
H    -2.402472   -6.544396    0.762331   -0.026857    0.040242    0.740552
36
* Frequency(6)  -74.1988
C    -7.212621    2.889962   -0.262946   -0.000645    0.001797    0.012413
C    -5.953840    3.529362   -0.264330   -0.000665    0.001614    0.009323
C    -4.770127    2.821123   -0.160715   -0.000883    0.002079    0.015407
C    -4.777660    1.415787   -0.051110   -0.001035    0.002250    0.016529
C    -3.566177    0.661973    0.059884   -0.001976    0.003716    0.035907
C    -3.579951   -0.699988    0.158953   -0.000942    0.002119    0.014089
C    -4.806299   -1.450237    0.153608    0.001971   -0.003887   -0.045428
C    -4.836636   -2.879886    0.237114    0.004890   -0.011484   -0.135352
C    -6.098493   -3.515387    0.239933    0.003746   -0.010089   -0.138992
C    -7.285072   -2.804336    0.171267    0.000680   -0.001285   -0.031433
C    -7.285492   -1.399687    0.074256   -0.000660    0.002499    0.014385
C    -8.496621   -0.645112   -0.022938   -0.001331    0.003819    0.035680
C    -8.486667    0.716392   -0.130906   -0.001372    0.003664    0.032923
C    -7.257625    1.462428   -0.149165   -0.000873    0.002187    0.019025
C    -6.027187    0.722419   -0.046162   -0.000556    0.001509    0.011726
C    -6.036098   -0.709903    0.061323    0.000290    0.000100   -0.004385
C    -8.439037    3.674230   -0.375718   -0.000482    0.001335    0.007985
C    -3.599123   -3.659982    0.293997    0.011417   -0.023500   -0.305887
C    -8.544064    5.022639   -0.495578   -0.000524    0.001162    0.005843
C    -3.502258   -4.990530    0.575562   -0.018776    0.014282    0.389621
C    -9.804511    5.680531   -0.598608   -0.000410    0.000593    0.001024
O    -2.284245   -5.595081    0.553983    0.009026    0.002161   -0.022190
N   -10.824076    6.234885   -0.683948   -0.000379    0.000183   -0.002126
H    -5.904763    4.616580   -0.347949   -0.000506    0.001224    0.004237
H    -3.813411    3.350089   -0.162737   -0.000974    0.002255    0.018632
H    -2.615575    1.202358    0.066411   -0.003456    0.006735    0.077106
H    -2.628252   -1.222325    0.250604   -0.001714    0.008477    0.064098
H    -6.152405   -4.606757    0.272261    0.006522   -0.025147   -0.326626
H    -8.239816   -3.337728    0.172825    0.001377   -0.002860   -0.054145
H    -9.448168   -1.184150   -0.010802   -0.001658    0.004581    0.047291
H    -9.441403    1.236359   -0.202384   -0.001755    0.004577    0.044290
H    -9.381527    3.124923   -0.363909   -0.000351    0.001042    0.004711
H    -2.634823   -3.141022    0.078554    0.053366   -0.068994   -1.110315
H    -7.668117    5.677006   -0.518973   -0.000689    0.001480    0.008551
H    -4.382944   -5.648129    0.839599   -0.064322    0.055321    1.335194
H    -2.404567   -6.541256    0.820119   -0.026857    0.040242    0.740552
36
* Frequency(6)  -74.1988
C    -7.212651    2.890045   -0.262371   -0.000645    0.001797    0.012413
C    -5.953871    3.529437   -0.263898   -0.000665    0.001614    0.009323
C    -4.770167    2.821219   -0.160002   -0.000883    0.002079    0.015407
C    -4.777708    1.415891   -0.050345   -0.001035    0.002250    0.016529
C    -3.566268    0.662145    0.061546   -0.001976    0.003716    0.035907
C    -3.579994   -0.699890    0.159605   -0.000942    0.002119    0.014089
C    -4.806208   -1.450417    0.151505    0.001971   -0.003887   -0.045428
C    -4.836410   -2.880418    0.230849    0.004890   -0.011484   -0.135352
C    -6.098320   -3.515854    0.233501    0.003746   -0.010089   -0.138992
C    -7.285040   -2.804396    0.169812    0.000680   -0.001285   -0.031433
C    -7.285522   -1.399571    0.074921   -0.000660    0.002499    0.014385
C    -8.496683   -0.644936   -0.021286   -0.001331    0.003819    0.035680
C    -8.486731    0.716562   -0.129383   -0.001372    0.003664    0.032923
C    -7.257665    1.462530   -0.148284   -0.000873    0.002187    0.019025
C    -6.027212    0.722489   -0.045620   -0.000556    0.001509    0.011726
C    -6.036085   -0.709898    0.061120    0.000290    0.000100   -0.004385
C    -8.439059    3.674292   -0.375348   -0.000482    0.001335    0.007985
C    -3.598595   -3.661070    0.279840    0.011417   -0.023500   -0.305887
C    -8.544088    5.022692   -0.495308   -0.000524    0.001162    0.005843
C    -3.503127   -4.989869    0.593594   -0.018776    0.014282    0.389621
C    -9.804530    5.680558   -0.598560   -0.000410    0.000593    0.001024
O    -2.283827   -5.594981    0.552956    0.009026    0.002161   -0.022190
N   -10.824094    6.234893   -0.684046   -0.000379    0.000183   -0.002126
H    -5.904786    4.616637   -0.347753   -0.000506    0.001224    0.004237
H    -3.813456    3.350194   -0.161875   -0.000974    0.002255    0.018632
H    -2.615735    1.202670    0.069980   -0.003456    0.006735    0.077106
H    -2.628331   -1.221932    0.253571   -0.001714    0.008477    0.064098
H    -6.152103   -4.607921    0.257145    0.006522   -0.025147   -0.326626
H    -8.239752   -3.337861    0.170319    0.001377   -0.002860   -0.054145
H    -9.448245   -1.183938   -0.008613   -0.001658    0.004581    0.047291
H    -9.441485    1.236571   -0.200334   -0.001755    0.004577    0.044290
H    -9.381543    3.124971   -0.363691   -0.000351    0.001042    0.004711
H    -2.632353   -3.144216    0.027166    0.053366   -0.068994   -1.110315
H    -7.668149    5.677074   -0.518578   -0.000689    0.001480    0.008551
H    -4.385920   -5.645569    0.901394   -0.064322    0.055321    1.335194
H    -2.405810   -6.539394    0.854393   -0.026857    0.040242    0.740552
36
* Frequency(6)  -74.1988
C    -7.212657    2.890062   -0.262253   -0.000645    0.001797    0.012413
C    -5.953877    3.529452   -0.263810   -0.000665    0.001614    0.009323
C    -4.770176    2.821239   -0.159856   -0.000883    0.002079    0.015407
C    -4.777718    1.415912   -0.050187   -0.001035    0.002250    0.016529
C    -3.566287    0.662180    0.061887   -0.001976    0.003716    0.035907
C    -3.580003   -0.699870    0.159739   -0.000942    0.002119    0.014089
C    -4.806189   -1.450454    0.151073    0.001971   -0.003887   -0.045428
C    -4.836363   -2.880527    0.229562    0.004890   -0.011484   -0.135352
C    -6.098284   -3.515950    0.232178    0.003746   -0.010089   -0.138992
C    -7.285034   -2.804408    0.169513    0.000680   -0.001285   -0.031433
C    -7.285528   -1.399547    0.075058   -0.000660    0.002499    0.014385
C    -8.496696   -0.644899   -0.020947   -0.001331    0.003819    0.035680
C    -8.486744    0.716597   -0.129069   -0.001372    0.003664    0.032923
C    -7.257674    1.462550   -0.148103   -0.000873    0.002187    0.019025
C    -6.027218    0.722503   -0.045508   -0.000556    0.001509    0.011726
C    -6.036082   -0.709898    0.061079    0.000290    0.000100   -0.004385
C    -8.439063    3.674305   -0.375272   -0.000482    0.001335    0.007985
C    -3.598486   -3.661293    0.276930    0.011417   -0.023500   -0.305887
C    -8.544093    5.022703   -0.495252   -0.000524    0.001162    0.005843
C    -3.503305   -4.989734    0.597301   -0.018776    0.014282    0.389621
C    -9.804533    5.680564   -0.598550   -0.000410    0.000593    0.001024
O    -2.283742   -5.594961    0.552745    0.009026    0.002161   -0.022190
N   -10.824097    6.234895   -0.684066   -0.000379    0.000183   -0.002126
H    -5.904791    4.616648   -0.347713   -0.000506    0.001224    0.004237
H    -3.813466    3.350215   -0.161697   -0.000974    0.002255    0.018632
H    -2.615768    1.202734    0.070714   -0.003456    0.006735    0.077106
H    -2.628348   -1.221852    0.254180   -0.001714    0.008477    0.064098
H    -6.152041   -4.608160    0.254037    0.006522   -0.025147   -0.326626
H    -8.239739   -3.337888    0.169804    0.001377   -0.002860   -0.054145
H    -9.448260   -1.183894   -0.008163   -0.001658    0.004581    0.047291
H    -9.441501    1.236614   -0.199913   -0.001755    0.004577    0.044290
H    -9.381547    3.124981   -0.363646   -0.000351    0.001042    0.004711
H    -2.631845   -3.144872    0.016602    0.053366   -0.068994   -1.110315
H    -7.668155    5.677088   -0.518496   -0.000689    0.001480    0.008551
H    -4.386532   -5.645042    0.914098   -0.064322    0.055321    1.335194
H    -2.406066   -6.539011    0.861439   -0.026857    0.040242    0.740552
36
* Frequency(6)  -74.1988
C    -7.212639    2.890011   -0.262604   -0.000645    0.001797    0.012413
C    -5.953859    3.529407   -0.264073   -0.000665    0.001614    0.009323
C    -4.770151    2.821180   -0.160291   -0.000883    0.002079    0.015407
C    -4.777689    1.415848   -0.050655   -0.001035    0.002250    0.016529
C    -3.566231    0.662075    0.060872   -0.001976    0.003716    0.035907
C    -3.579977   -0.699930    0.159340   -0.000942    0.002119    0.014089
C    -4.806245   -1.450344    0.152358    0.001971   -0.003887   -0.045428
C    -4.836502   -2.880202    0.233390    0.004890   -0.011484   -0.135352
C    -6.098390   -3.515665    0.236109    0.003746   -0.010089   -0.138992
C    -7.285053   -2.804371    0.170402    0.000680   -0.001285   -0.031433
C    -7.285510   -1.399618    0.074651   -0.000660    0.002499    0.014385
C    -8.496658   -0.645007   -0.021956   -0.001331    0.003819    0.035680
C    -8.486705    0.716493   -0.130001   -0.001372    0.003664    0.032923
C    -7.257649    1.462489   -0.148641   -0.000873    0.002187    0.019025
C    -6.027202    0.722460   -0.045840   -0.000556    0.001509    0.011726
C    -6.036090   -0.709900    0.061203    0.000290    0.000100   -0.004385
C    -8.439050    3.674267   -0.375498   -0.000482    0.001335    0.007985
C    -3.598809   -3.660629    0.285582    0.011417   -0.023500   -0.305887
C    -8.544079    5.022671   -0.495417   -0.000524    0.001162    0.005843
C    -3.502774   -4.990138    0.586281   -0.018776    0.014282    0.389621
C    -9.804522    5.680547   -0.598579   -0.000410    0.000593    0.001024
O    -2.283997   -5.595022    0.553372    0.009026    0.002161   -0.022190
N   -10.824086    6.234890   -0.684006   -0.000379    0.000183   -0.002126
H    -5.904777    4.616614   -0.347833   -0.000506    0.001224    0.004237
H    -3.813438    3.350151   -0.162224   -0.000974    0.002255    0.018632
H    -2.615670    1.202543    0.068533   -0.003456    0.006735    0.077106
H    -2.628299   -1.222091    0.252368   -0.001714    0.008477    0.064098
H    -6.152225   -4.607449    0.263275    0.006522   -0.025147   -0.326626
H    -8.239778   -3.337807    0.171335    0.001377   -0.002860   -0.054145
H    -9.448213   -1.184023   -0.009501   -0.001658    0.004581    0.047291
H    -9.441452    1.236485   -0.201166   -0.001755    0.004577    0.044290
H    -9.381537    3.124952   -0.363779   -0.000351    0.001042    0.004711
H    -2.633355   -3.142921    0.048006    0.053366   -0.068994   -1.110315
H    -7.668136    5.677046   -0.518738   -0.000689    0.001480    0.008551
H    -4.384713   -5.646607    0.876333   -0.064322    0.055321    1.335194
H    -2.405306   -6.540149    0.840493   -0.026857    0.040242    0.740552
36
* Frequency(6)  -74.1988
C    -7.212598    2.889898   -0.263387   -0.000645    0.001797    0.012413
C    -5.953817    3.529305   -0.264661   -0.000665    0.001614    0.009323
C    -4.770095    2.821049   -0.161262   -0.000883    0.002079    0.015407
C    -4.777623    1.415707   -0.051697   -0.001035    0.002250    0.016529
C    -3.566106    0.661841    0.058609   -0.001976    0.003716    0.035907
C    -3.579917   -0.700063    0.158452   -0.000942    0.002119    0.014089
C    -4.806369   -1.450099    0.155221    0.001971   -0.003887   -0.045428
C    -4.836810   -2.879479    0.241920    0.004890   -0.011484   -0.135352
C    -6.098626   -3.515029    0.244868    0.003746   -0.010089   -0.138992
C    -7.285096   -2.804290    0.172383    0.000680   -0.001285   -0.031433
C    -7.285468   -1.399775    0.073745   -0.000660    0.002499    0.014385
C    -8.496574   -0.645248   -0.024204   -0.001331    0.003819    0.035680
C    -8.486619    0.716262   -0.132075   -0.001372    0.003664    0.032923
C    -7.257594    1.462351   -0.149840   -0.000873    0.002187    0.019025
C    -6.027167    0.722365   -0.046579   -0.000556    0.001509    0.011726
C    -6.036108   -0.709907    0.061479    0.000290    0.000100   -0.004385
C    -8.439019    3.674183   -0.376001   -0.000482    0.001335    0.007985
C    -3.599528   -3.659148    0.304858    0.011417   -0.023500   -0.305887
C    -8.544046    5.022597   -0.495786   -0.000524    0.001162    0.005843
C    -3.501591   -4.991038    0.561728   -0.018776    0.014282    0.389621
C    -9.804496    5.680510   -0.598644   -0.000410    0.000593    0.001024
O    -2.284566   -5.595158    0.554771    0.009026    0.002161   -0.022190
N   -10.824063    6.234878   -0.683872   -0.000379    0.000183   -0.002126
H    -5.904745    4.616537   -0.348100   -0.000506    0.001224    0.004237
H    -3.813377    3.350009   -0.163399   -0.000974    0.002255    0.018632
H    -2.615453    1.202119    0.063674   -0.003456    0.006735    0.077106
H    -2.628191   -1.222626    0.248328   -0.001714    0.008477    0.064098
H    -6.152636   -4.605864    0.283858    0.006522   -0.025147   -0.326626
H    -8.239865   -3.337627    0.174747    0.001377   -0.002860   -0.054145
H    -9.448109   -1.184312   -0.012481   -0.001658    0.004581    0.047291
H    -9.441341    1.236196   -0.203957   -0.001755    0.004577    0.044290
H    -9.381515    3.124886   -0.364076   -0.000351    0.001042    0.004711
H    -2.636718   -3.138573    0.117975    0.053366   -0.068994   -1.110315
H    -7.668093    5.676953   -0.519277   -0.000689    0.001480    0.008551
H    -4.380660   -5.650093    0.792193   -0.064322    0.055321    1.335194
H    -2.403614   -6.542685    0.793826   -0.026857    0.040242    0.740552
36
* Frequency(6)  -74.1988
C    -7.212539    2.889735   -0.264515   -0.000645    0.001797    0.012413
C    -5.953756    3.529158   -0.265508   -0.000665    0.001614    0.009323
C    -4.770015    2.820860   -0.162663   -0.000883    0.002079    0.015407
C    -4.777529    1.415502   -0.053199   -0.001035    0.002250    0.016529
C    -3.565927    0.661503    0.055344   -0.001976    0.003716    0.035907
C    -3.579832   -0.700256    0.157171   -0.000942    0.002119    0.014089
C    -4.806548   -1.449746    0.159351    0.001971   -0.003887   -0.045428
C    -4.837254   -2.878434    0.254226    0.004890   -0.011484   -0.135352
C    -6.098967   -3.514111    0.257506    0.003746   -0.010089   -0.138992
C    -7.285158   -2.804174    0.175241    0.000680   -0.001285   -0.031433
C    -7.285408   -1.400003    0.072437   -0.000660    0.002499    0.014385
C    -8.496453   -0.645595   -0.027448   -0.001331    0.003819    0.035680
C    -8.486494    0.715929   -0.135069   -0.001372    0.003664    0.032923
C    -7.257515    1.462152   -0.151570   -0.000873    0.002187    0.019025
C    -6.027116    0.722228   -0.047645   -0.000556    0.001509    0.011726
C    -6.036135   -0.709916    0.061878    0.000290    0.000100   -0.004385
C    -8.438976    3.674061   -0.376727   -0.000482    0.001335    0.007985
C    -3.600566   -3.657011    0.332670    0.011417   -0.023500   -0.305887
C    -8.543998    5.022492   -0.496317   -0.000524    0.001162    0.005843
C    -3.499884   -4.992336    0.526303   -0.018776    0.014282    0.389621
C    -9.804459    5.680456   -0.598737   -0.000410    0.000593    0.001024
O    -2.285386   -5.595355    0.556788    0.009026    0.002161   -0.022190
N   -10.824028    6.234862   -0.683679   -0.000379    0.000183   -0.002126
H    -5.904699    4.616426   -0.348485   -0.000506    0.001224    0.004237
H    -3.813288    3.349804   -0.165093   -0.000974    0.002255    0.018632
H    -2.615138    1.201507    0.056663   -0.003456    0.006735    0.077106
H    -2.628035   -1.223396    0.242500   -0.001714    0.008477    0.064098
H    -6.153229   -4.603578    0.313556    0.006522   -0.025147   -0.326626
H    -8.239990   -3.337367    0.179670    0.001377   -0.002860   -0.054145
H    -9.447958   -1.184729   -0.016781   -0.001658    0.004581    0.047291
H    -9.441181    1.235780   -0.207984   -0.001755    0.004577    0.044290
H    -9.381483    3.124792   -0.364504   -0.000351    0.001042    0.004711
H    -2.641570   -3.132300    0.218927    0.053366   -0.068994   -1.110315
H    -7.668030    5.676819   -0.520054   -0.000689    0.001480    0.008551
H    -4.374812   -5.655123    0.670795   -0.064322    0.055321    1.335194
H    -2.401172   -6.546344    0.726494   -0.026857    0.040242    0.740552
36
* Frequency(6)  -74.1988
C    -7.212469    2.889539   -0.265868   -0.000645    0.001797    0.012413
C    -5.953684    3.528982   -0.266524   -0.000665    0.001614    0.009323
C    -4.769919    2.820633   -0.164342   -0.000883    0.002079    0.015407
C    -4.777416    1.415257   -0.055001   -0.001035    0.002250    0.016529
C    -3.565711    0.661098    0.051431   -0.001976    0.003716    0.035907
C    -3.579729   -0.700487    0.155636   -0.000942    0.002119    0.014089
C    -4.806763   -1.449322    0.164301    0.001971   -0.003887   -0.045428
C    -4.837787   -2.877183    0.268976    0.004890   -0.011484   -0.135352
C    -6.099375   -3.513012    0.272652    0.003746   -0.010089   -0.138992
C    -7.285232   -2.804034    0.178666    0.000680   -0.001285   -0.031433
C    -7.285336   -1.400275    0.070869   -0.000660    0.002499    0.014385
C    -8.496308   -0.646011   -0.031337   -0.001331    0.003819    0.035680
C    -8.486344    0.715530   -0.138656   -0.001372    0.003664    0.032923
C    -7.257420    1.461914   -0.153643   -0.000873    0.002187    0.019025
C    -6.027056    0.722064   -0.048923   -0.000556    0.001509    0.011726
C    -6.036166   -0.709927    0.062355    0.000290    0.000100   -0.004385
C    -8.438923    3.673916   -0.377597   -0.000482    0.001335    0.007985
C    -3.601811   -3.654450    0.366003    0.011417   -0.023500   -0.305887
C    -8.543941    5.022365   -0.496954   -0.000524    0.001162    0.005843
C    -3.497838   -4.993892    0.483845   -0.018776    0.014282    0.389621
C    -9.804414    5.680391   -0.598849   -0.000410    0.000593    0.001024
O    -2.286370   -5.595590    0.559206    0.009026    0.002161   -0.022190
N   -10.823987    6.234842   -0.683447   -0.000379    0.000183   -0.002126
H    -5.904644    4.616292   -0.348947   -0.000506    0.001224    0.004237
H    -3.813182    3.349559   -0.167123   -0.000974    0.002255    0.018632
H    -2.614762    1.200773    0.048261   -0.003456    0.006735    0.077106
H    -2.627848   -1.224320    0.235515   -0.001714    0.008477    0.064098
H    -6.153940   -4.600837    0.349149    0.006522   -0.025147   -0.326626
H    -8.240140   -3.337055    0.185571    0.001377   -0.002860   -0.054145
H    -9.447778   -1.185228   -0.021934   -0.001658    0.004581    0.047291
H    -9.440990    1.235281   -0.212810   -0.001755    0.004577    0.044290
H    -9.381445    3.124678   -0.365018   -0.000351    0.001042    0.004711
H    -2.647385   -3.124781    0.339922    0.053366   -0.068994   -1.110315
H    -7.667955    5.676657   -0.520986   -0.000689    0.001480    0.008551
H    -4.367802   -5.661152    0.525294   -0.064322    0.055321    1.335194
H    -2.398245   -6.550729    0.645793   -0.026857    0.040242    0.740552
36
* Frequency(6)  -74.1988
C    -7.212395    2.889332   -0.267298   -0.000645    0.001797    0.012413
C    -5.953607    3.528796   -0.267598   -0.000665    0.001614    0.009323
C    -4.769817    2.820394   -0.166117   -0.000883    0.002079    0.015407
C    -4.777297    1.414998   -0.056905   -0.001035    0.002250    0.016529
C    -3.565484    0.660670    0.047294   -0.001976    0.003716    0.035907
C    -3.579621   -0.700731    0.154013   -0.000942    0.002119    0.014089
C    -4.806990   -1.448874    0.169535    0.001971   -0.003887   -0.045428
C    -4.838351   -2.875860    0.284571    0.004890   -0.011484   -0.135352
C    -6.099807   -3.511850    0.288666    0.003746   -0.010089   -0.138992
C    -7.285310   -2.803886    0.182288    0.000680   -0.001285   -0.031433
C    -7.285260   -1.400563    0.069212   -0.000660    0.002499    0.014385
C    -8.496155   -0.646451   -0.035447   -0.001331    0.003819    0.035680
C    -8.486186    0.715107   -0.142450   -0.001372    0.003664    0.032923
C    -7.257319    1.461662   -0.155835   -0.000873    0.002187    0.019025
C    -6.026992    0.721890   -0.050274   -0.000556    0.001509    0.011726
C    -6.036200   -0.709938    0.062861    0.000290    0.000100   -0.004385
C    -8.438868    3.673762   -0.378517   -0.000482    0.001335    0.007985
C    -3.603126   -3.651743    0.401246    0.011417   -0.023500   -0.305887
C    -8.543880    5.022231   -0.497627   -0.000524    0.001162    0.005843
C    -3.495674   -4.995538    0.438954   -0.018776    0.014282    0.389621
C    -9.804367    5.680323   -0.598967   -0.000410    0.000593    0.001024
O    -2.287410   -5.595839    0.561763    0.009026    0.002161   -0.022190
N   -10.823943    6.234821   -0.683202   -0.000379    0.000183   -0.002126
H    -5.904585    4.616151   -0.349435   -0.000506    0.001224    0.004237
H    -3.813070    3.349299   -0.169270   -0.000974    0.002255    0.018632
H    -2.614364    1.199997    0.039377   -0.003456    0.006735    0.077106
H    -2.627651   -1.225297    0.228130   -0.001714    0.008477    0.064098
H    -6.154691   -4.597940    0.386782    0.006522   -0.025147   -0.326626
H    -8.240299   -3.336726    0.191809    0.001377   -0.002860   -0.054145
H    -9.447587   -1.185756   -0.027383   -0.001658    0.004581    0.047291
H    -9.440788    1.234754   -0.217913   -0.001755    0.004577    0.044290
H    -9.381404    3.124558   -0.365561   -0.000351    0.001042    0.004711
H    -2.653534   -3.116832    0.467848    0.053366   -0.068994   -1.110315
H    -7.667875    5.676487   -0.521972   -0.000689    0.001480    0.008551
H    -4.360391   -5.667525    0.371458   -0.064322    0.055321    1.335194