36
* (null), Energy   -1000.0000000
C    -7.209377    2.882563   -0.245865    0.004014   -0.007257   -0.133290
C    -5.948871    3.519383   -0.244443    0.003862   -0.006843   -0.114707
C    -4.765779    2.807167   -0.165657    0.001321   -0.002814   -0.042421
C    -4.774664    1.399603   -0.085038   -0.000007   -0.000908   -0.008487
C    -3.563256    0.641963    0.006942   -0.000960    0.000437    0.014531
C    -3.580069   -0.721762    0.082921   -0.001211    0.000714    0.020072
C    -4.810266   -1.464108    0.066146   -0.000896    0.000427    0.012647
C    -4.841241   -2.891550    0.136460   -0.000950    0.000589    0.015535
C    -6.098228   -3.532442    0.129929   -0.001083    0.000866    0.019662
C    -7.287799   -2.820401    0.075196   -0.001087    0.001208    0.023743
C    -7.287940   -1.415344    0.000688   -0.000743    0.000669    0.013610
C    -8.498737   -0.655891   -0.077848   -0.001170    0.001991    0.033767
C    -8.486442    0.707187   -0.158159   -0.000443    0.000605    0.010566
C    -7.256305    1.453370   -0.165691    0.001676   -0.003572   -0.066048
C    -6.026612    0.709859   -0.087416    0.000372   -0.001490   -0.024152
C    -6.038544   -0.723635   -0.008731   -0.000481   -0.000082    0.001198
C    -8.435140    3.671977   -0.326151    0.008804   -0.016067   -0.290930
C    -3.604667   -3.676743    0.198310   -0.000581    0.000924    0.012523
C    -8.538247    5.023037   -0.411615   -0.011810    0.031315    0.481615
C    -3.493910   -4.905795    0.738862    0.001176   -0.000322    0.009339
C    -9.798201    5.686067   -0.483936   -0.003747    0.008133    0.129625
O    -2.324569   -5.588427    0.715394    0.001479    0.000370    0.005084
N   -10.816861    6.245330   -0.543854    0.001985   -0.009093   -0.128896
H    -5.898430    4.608085   -0.304921    0.009166   -0.015156   -0.259199
H    -3.808300    3.334778   -0.164194    0.002130   -0.004219   -0.064745
H    -2.612147    1.181240    0.021152   -0.001421    0.001009    0.023655
H    -2.634363   -1.257429    0.168022   -0.002093    0.001298    0.033921
H    -6.137485   -4.624003    0.134166   -0.001553    0.000898    0.023339
H    -8.242454   -3.353901    0.066022   -0.001517    0.001779    0.035053
H    -9.451406   -1.193037   -0.073206   -0.002690    0.005125    0.084263
H    -9.440646    1.229793   -0.216506   -0.002873    0.004535    0.086382
H    -9.378617    3.124334   -0.316815    0.030903   -0.068607   -1.156944
H    -2.687219   -3.252296   -0.217088   -0.001828    0.002051    0.010894
H    -7.660856    5.675659   -0.429789   -0.037661    0.093514    1.470489
H    -4.338165   -5.404435    1.230366    0.002528   -0.002112    0.009831
H    -2.414951   -6.411938    1.209448    0.002837   -0.001205    0.002708
36
* Frequency(6)  -45.5788
C    -7.208921    2.881738   -0.261012    0.004014   -0.007257   -0.133290
C    -5.948432    3.518605   -0.257478    0.003862   -0.006843   -0.114707
C    -4.765628    2.806847   -0.170478    0.001321   -0.002814   -0.042421
C    -4.774665    1.399500   -0.086003   -0.000007   -0.000908   -0.008487
C    -3.563365    0.642012    0.008594   -0.000960    0.000437    0.014531
C    -3.580207   -0.721681    0.085202   -0.001211    0.000714    0.020072
C    -4.810368   -1.464060    0.067583   -0.000896    0.000427    0.012647
C    -4.841349   -2.891483    0.138226   -0.000950    0.000589    0.015535
C    -6.098351   -3.532343    0.132163   -0.001083    0.000866    0.019662
C    -7.287922   -2.820264    0.077895   -0.001087    0.001208    0.023743
C    -7.288024   -1.415268    0.002235   -0.000743    0.000669    0.013610
C    -8.498870   -0.655665   -0.074011   -0.001170    0.001991    0.033767
C    -8.486492    0.707255   -0.156958   -0.000443    0.000605    0.010566
C    -7.256115    1.452965   -0.173197    0.001676   -0.003572   -0.066048
C    -6.026569    0.709690   -0.090161    0.000372   -0.001490   -0.024152
C    -6.038598   -0.723644   -0.008595   -0.000481   -0.000082    0.001198
C    -8.434140    3.670151   -0.359213    0.008804   -0.016067   -0.290930
C    -3.604733   -3.676638    0.199733   -0.000581    0.000924    0.012523
C    -8.539589    5.026595   -0.356882   -0.011810    0.031315    0.481615
C    -3.493776   -4.905831    0.739924    0.001176   -0.000322    0.009339
C    -9.798627    5.686991   -0.469204   -0.003747    0.008133    0.129625
O    -2.324401   -5.588385    0.715972    0.001479    0.000370    0.005084
N   -10.816636    6.244297   -0.558503    0.001985   -0.009093   -0.128896
H    -5.897388    4.606363   -0.334378    0.009166   -0.015156   -0.259199
H    -3.808058    3.334299   -0.171552    0.002130   -0.004219   -0.064745
H    -2.612309    1.181355    0.023840   -0.001421    0.001009    0.023655
H    -2.634601   -1.257282    0.171877   -0.002093    0.001298    0.033921
H    -6.137662   -4.623901    0.136818   -0.001553    0.000898    0.023339
H    -8.242627   -3.353699    0.070006   -0.001517    0.001779    0.035053
H    -9.451712   -1.192455   -0.063630   -0.002690    0.005125    0.084263
H    -9.440973    1.230308   -0.206689   -0.002873    0.004535    0.086382
H    -9.375105    3.116537   -0.448296    0.030903   -0.068607   -1.156944
H    -2.687427   -3.252063   -0.215850   -0.001828    0.002051    0.010894
H    -7.665136    5.686286   -0.262675   -0.037661    0.093514    1.470489
H    -4.337877   -5.404675    1.231483    0.002528   -0.002112    0.009831
H    -2.414628   -6.412075    1.209756    0.002837   -0.001205    0.002708
36
* Frequency(6)  -45.5788
C    -7.208514    2.881003   -0.274519    0.004014   -0.007257   -0.133290
C    -5.948041    3.517912   -0.269102    0.003862   -0.006843   -0.114707
C    -4.765495    2.806562   -0.174777    0.001321   -0.002814   -0.042421
C    -4.774666    1.399408   -0.086863   -0.000007   -0.000908   -0.008487
C    -3.563463    0.642057    0.010066   -0.000960    0.000437    0.014531
C    -3.580330   -0.721609    0.087236   -0.001211    0.000714    0.020072
C    -4.810458   -1.464016    0.068865   -0.000896    0.000427    0.012647
C    -4.841446   -2.891424    0.139800   -0.000950    0.000589    0.015535
C    -6.098461   -3.532256    0.134156   -0.001083    0.000866    0.019662
C    -7.288032   -2.820142    0.080300   -0.001087    0.001208    0.023743
C    -7.288100   -1.415200    0.003614   -0.000743    0.000669    0.013610
C    -8.498989   -0.655463   -0.070589   -0.001170    0.001991    0.033767
C    -8.486537    0.707317   -0.155888   -0.000443    0.000605    0.010566
C    -7.255945    1.452603   -0.179889    0.001676   -0.003572   -0.066048
C    -6.026531    0.709539   -0.092608    0.000372   -0.001490   -0.024152
C    -6.038647   -0.723652   -0.008473   -0.000481   -0.000082    0.001198
C    -8.433248    3.668523   -0.388693    0.008804   -0.016067   -0.290930
C    -3.604792   -3.676545    0.201002   -0.000581    0.000924    0.012523
C    -8.540786    5.029769   -0.308080   -0.011810    0.031315    0.481615
C    -3.493657   -4.905864    0.740870    0.001176   -0.000322    0.009339
C    -9.799007    5.687816   -0.456070   -0.003747    0.008133    0.129625
O    -2.324251   -5.588347    0.716487    0.001479    0.000370    0.005084
N   -10.816435    6.243375   -0.571564    0.001985   -0.009093   -0.128896
H    -5.896459    4.604827   -0.360642    0.009166   -0.015156   -0.259199
H    -3.807842    3.333871   -0.178113    0.002130   -0.004219   -0.064745
H    -2.612453    1.181457    0.026237   -0.001421    0.001009    0.023655
H    -2.634814   -1.257150    0.175314   -0.002093    0.001298    0.033921
H    -6.137819   -4.623810    0.139183   -0.001553    0.000898    0.023339
H    -8.242781   -3.353518    0.073558   -0.001517    0.001779    0.035053
H    -9.451984   -1.191936   -0.055092   -0.002690    0.005125    0.084263
H    -9.441264    1.230768   -0.197936   -0.002873    0.004535    0.086382
H    -9.371973    3.109585   -0.565529    0.030903   -0.068607   -1.156944
H    -2.687612   -3.251855   -0.214747   -0.001828    0.002051    0.010894
H    -7.668952    5.695762   -0.113671   -0.037661    0.093514    1.470489
H    -4.337621   -5.404889    1.232479    0.002528   -0.002112    0.009831
H    -2.414341   -6.412197    1.210030    0.002837   -0.001205    0.002708
36
* Frequency(6)  -45.5788
C    -7.208201    2.880436   -0.284920    0.004014   -0.007257   -0.133290
C    -5.947740    3.517378   -0.278053    0.003862   -0.006843   -0.114707
C    -4.765392    2.806343   -0.178087    0.001321   -0.002814   -0.042421
C    -4.774666    1.399337   -0.087525   -0.000007   -0.000908   -0.008487
C    -3.563537    0.642091    0.011200   -0.000960    0.000437    0.014531
C    -3.580424   -0.721553    0.088802   -0.001211    0.000714    0.020072
C    -4.810528   -1.463983    0.069851   -0.000896    0.000427    0.012647
C    -4.841520   -2.891378    0.141012   -0.000950    0.000589    0.015535
C    -6.098545   -3.532188    0.135690   -0.001083    0.000866    0.019662
C    -7.288117   -2.820047    0.082153   -0.001087    0.001208    0.023743
C    -7.288158   -1.415148    0.004676   -0.000743    0.000669    0.013610
C    -8.499080   -0.655308   -0.067954   -0.001170    0.001991    0.033767
C    -8.486572    0.707364   -0.155063   -0.000443    0.000605    0.010566
C    -7.255814    1.452324   -0.185043    0.001676   -0.003572   -0.066048
C    -6.026502    0.709422   -0.094493    0.000372   -0.001490   -0.024152
C    -6.038685   -0.723659   -0.008380   -0.000481   -0.000082    0.001198
C    -8.432561    3.667269   -0.411396    0.008804   -0.016067   -0.290930
C    -3.604837   -3.676472    0.201979   -0.000581    0.000924    0.012523
C    -8.541708    5.032212   -0.270498   -0.011810    0.031315    0.481615
C    -3.493565   -4.905889    0.741599    0.001176   -0.000322    0.009339
C    -9.799299    5.688450   -0.445954   -0.003747    0.008133    0.129625
O    -2.324136   -5.588318    0.716884    0.001479    0.000370    0.005084
N   -10.816280    6.242666   -0.581622    0.001985   -0.009093   -0.128896
H    -5.895744    4.603645   -0.380868    0.009166   -0.015156   -0.259199
H    -3.807676    3.333542   -0.183165    0.002130   -0.004219   -0.064745
H    -2.612564    1.181536    0.028083   -0.001421    0.001009    0.023655
H    -2.634977   -1.257049    0.177961   -0.002093    0.001298    0.033921
H    -6.137940   -4.623740    0.141005   -0.001553    0.000898    0.023339
H    -8.242899   -3.353380    0.076293   -0.001517    0.001779    0.035053
H    -9.452194   -1.191536   -0.048516   -0.002690    0.005125    0.084263
H    -9.441488    1.231122   -0.191195   -0.002873    0.004535    0.086382
H    -9.369562    3.104232   -0.655809    0.030903   -0.068607   -1.156944
H    -2.687755   -3.251695   -0.213897   -0.001828    0.002051    0.010894
H    -7.671891    5.703059    0.001077   -0.037661    0.093514    1.470489
H    -4.337424   -5.405054    1.233246    0.002528   -0.002112    0.009831
H    -2.414119   -6.412291    1.210242    0.002837   -0.001205    0.002708
36
* Frequency(6)  -45.5788
C    -7.208015    2.880100   -0.291089    0.004014   -0.007257   -0.133290
C    -5.947561    3.517061   -0.283362    0.003862   -0.006843   -0.114707
C    -4.765330    2.806212   -0.180050    0.001321   -0.002814   -0.042421
C    -4.774667    1.399295   -0.087918   -0.000007   -0.000908   -0.008487
C    -3.563582    0.642111    0.011873   -0.000960    0.000437    0.014531
C    -3.580480   -0.721520    0.089731   -0.001211    0.000714    0.020072
C    -4.810570   -1.463963    0.070437   -0.000896    0.000427    0.012647
C    -4.841564   -2.891350    0.141731   -0.000950    0.000589    0.015535
C    -6.098595   -3.532148    0.136600   -0.001083    0.000866    0.019662
C    -7.288167   -2.819991    0.083252   -0.001087    0.001208    0.023743
C    -7.288192   -1.415117    0.005306   -0.000743    0.000669    0.013610
C    -8.499134   -0.655216   -0.066391   -0.001170    0.001991    0.033767
C    -8.486592    0.707392   -0.154574   -0.000443    0.000605    0.010566
C    -7.255736    1.452159   -0.188100    0.001676   -0.003572   -0.066048
C    -6.026485    0.709353   -0.095610    0.000372   -0.001490   -0.024152
C    -6.038707   -0.723663   -0.008324   -0.000481   -0.000082    0.001198
C    -8.432153    3.666525   -0.424860    0.008804   -0.016067   -0.290930
C    -3.604864   -3.676430    0.202559   -0.000581    0.000924    0.012523
C    -8.542254    5.033662   -0.248208   -0.011810    0.031315    0.481615
C    -3.493511   -4.905904    0.742031    0.001176   -0.000322    0.009339
C    -9.799473    5.688827   -0.439955   -0.003747    0.008133    0.129625
O    -2.324067   -5.588301    0.717119    0.001479    0.000370    0.005084
N   -10.816188    6.242245   -0.587588    0.001985   -0.009093   -0.128896
H    -5.895320    4.602943   -0.392865    0.009166   -0.015156   -0.259199
H    -3.807577    3.333347   -0.186162    0.002130   -0.004219   -0.064745
H    -2.612629    1.181583    0.029178   -0.001421    0.001009    0.023655
H    -2.635074   -1.256989    0.179531   -0.002093    0.001298    0.033921
H    -6.138012   -4.623699    0.142085   -0.001553    0.000898    0.023339
H    -8.242969   -3.353297    0.077915   -0.001517    0.001779    0.035053
H    -9.452319   -1.191298   -0.044616   -0.002690    0.005125    0.084263
H    -9.441621    1.231332   -0.187198   -0.002873    0.004535    0.086382
H    -9.368131    3.101057   -0.709355    0.030903   -0.068607   -1.156944
H    -2.687840   -3.251600   -0.213392   -0.001828    0.002051    0.010894
H    -7.673634    5.707387    0.069134   -0.037661    0.093514    1.470489
H    -4.337307   -5.405152    1.233701    0.002528   -0.002112    0.009831
H    -2.413988   -6.412347    1.210367    0.002837   -0.001205    0.002708
36
* Frequency(6)  -45.5788
C    -7.207977    2.880031   -0.292357    0.004014   -0.007257   -0.133290
C    -5.947524    3.516996   -0.284453    0.003862   -0.006843   -0.114707
C    -4.765318    2.806186   -0.180454    0.001321   -0.002814   -0.042421
C    -4.774667    1.399287   -0.087999   -0.000007   -0.000908   -0.008487
C    -3.563591    0.642115    0.012011   -0.000960    0.000437    0.014531
C    -3.580492   -0.721513    0.089922   -0.001211    0.000714    0.020072
C    -4.810578   -1.463959    0.070557   -0.000896    0.000427    0.012647
C    -4.841573   -2.891345    0.141879   -0.000950    0.000589    0.015535
C    -6.098606   -3.532140    0.136787   -0.001083    0.000866    0.019662
C    -7.288178   -2.819980    0.083478   -0.001087    0.001208    0.023743
C    -7.288199   -1.415110    0.005435   -0.000743    0.000669    0.013610
C    -8.499145   -0.655197   -0.066070   -0.001170    0.001991    0.033767
C    -8.486596    0.707398   -0.154473   -0.000443    0.000605    0.010566
C    -7.255721    1.452125   -0.188729    0.001676   -0.003572   -0.066048
C    -6.026482    0.709339   -0.095840    0.000372   -0.001490   -0.024152
C    -6.038712   -0.723663   -0.008313   -0.000481   -0.000082    0.001198
C    -8.432069    3.666372   -0.427628    0.008804   -0.016067   -0.290930
C    -3.604869   -3.676421    0.202678   -0.000581    0.000924    0.012523
C    -8.542367    5.033960   -0.243626   -0.011810    0.031315    0.481615
C    -3.493500   -4.905907    0.742120    0.001176   -0.000322    0.009339
C    -9.799508    5.688904   -0.438722   -0.003747    0.008133    0.129625
O    -2.324053   -5.588298    0.717168    0.001479    0.000370    0.005084
N   -10.816169    6.242158   -0.588814    0.001985   -0.009093   -0.128896
H    -5.895233    4.602799   -0.395331    0.009166   -0.015156   -0.259199
H    -3.807557    3.333307   -0.186778    0.002130   -0.004219   -0.064745
H    -2.612643    1.181592    0.029403   -0.001421    0.001009    0.023655
H    -2.635094   -1.256977    0.179853   -0.002093    0.001298    0.033921
H    -6.138027   -4.623690    0.142307   -0.001553    0.000898    0.023339
H    -8.242984   -3.353280    0.078249   -0.001517    0.001779    0.035053
H    -9.452344   -1.191250   -0.043815   -0.002690    0.005125    0.084263
H    -9.441649    1.231375   -0.186376   -0.002873    0.004535    0.086382
H    -9.367837    3.100404   -0.720363    0.030903   -0.068607   -1.156944
H    -2.687857   -3.251581   -0.213289   -0.001828    0.002051    0.010894
H    -7.673992    5.708277    0.083125   -0.037661    0.093514    1.470489
H    -4.337283   -5.405172    1.233795    0.002528   -0.002112    0.009831
H    -2.413961   -6.412359    1.210393    0.002837   -0.001205    0.002708
36
* Frequency(6)  -45.5788
C    -7.208091    2.880237   -0.288587    0.004014   -0.007257   -0.133290
C    -5.947633    3.517189   -0.281209    0.003862   -0.006843   -0.114707
C    -4.765355    2.806265   -0.179254    0.001321   -0.002814   -0.042421
C    -4.774667    1.399312   -0.087759   -0.000007   -0.000908   -0.008487
C    -3.563564    0.642103    0.011600   -0.000960    0.000437    0.014531
C    -3.580458   -0.721533    0.089354   -0.001211    0.000714    0.020072
C    -4.810553   -1.463971    0.070199   -0.000896    0.000427    0.012647
C    -4.841546   -2.891361    0.141440   -0.000950    0.000589    0.015535
C    -6.098575   -3.532164    0.136231   -0.001083    0.000866    0.019662
C    -7.288147   -2.820014    0.082806   -0.001087    0.001208    0.023743
C    -7.288178   -1.415129    0.005050   -0.000743    0.000669    0.013610
C    -8.499112   -0.655253   -0.067025   -0.001170    0.001991    0.033767
C    -8.486584    0.707380   -0.154772   -0.000443    0.000605    0.010566
C    -7.255768    1.452226   -0.186861    0.001676   -0.003572   -0.066048
C    -6.026492    0.709381   -0.095157    0.000372   -0.001490   -0.024152
C    -6.038698   -0.723661   -0.008347   -0.000481   -0.000082    0.001198
C    -8.432318    3.666827   -0.419400    0.008804   -0.016067   -0.290930
C    -3.604853   -3.676447    0.202324   -0.000581    0.000924    0.012523
C    -8.542033    5.033074   -0.257248   -0.011810    0.031315    0.481615
C    -3.493533   -4.905898    0.741856    0.001176   -0.000322    0.009339
C    -9.799402    5.688674   -0.442388   -0.003747    0.008133    0.129625
O    -2.324095   -5.588308    0.717024    0.001479    0.000370    0.005084
N   -10.816225    6.242416   -0.585168    0.001985   -0.009093   -0.128896
H    -5.895492    4.603228   -0.388000    0.009166   -0.015156   -0.259199
H    -3.807617    3.333426   -0.184946    0.002130   -0.004219   -0.064745
H    -2.612603    1.181564    0.028734   -0.001421    0.001009    0.023655
H    -2.635034   -1.257013    0.178894   -0.002093    0.001298    0.033921
H    -6.137983   -4.623715    0.141647   -0.001553    0.000898    0.023339
H    -8.242941   -3.353331    0.077257   -0.001517    0.001779    0.035053
H    -9.452268   -1.191395   -0.046198   -0.002690    0.005125    0.084263
H    -9.441567    1.231246   -0.188819   -0.002873    0.004535    0.086382
H    -9.368712    3.102344   -0.687640    0.030903   -0.068607   -1.156944
H    -2.687805   -3.251639   -0.213597   -0.001828    0.002051    0.010894
H    -7.672927    5.705632    0.041534   -0.037661    0.093514    1.470489
H    -4.337354   -5.405112    1.233517    0.002528   -0.002112    0.009831
H    -2.414041   -6.412324    1.210316    0.002837   -0.001205    0.002708
36
* Frequency(6)  -45.5788
C    -7.208344    2.880694   -0.280187    0.004014   -0.007257   -0.133290
C    -5.947877    3.517621   -0.273980    0.003862   -0.006843   -0.114707
C    -4.765438    2.806443   -0.176581    0.001321   -0.002814   -0.042421
C    -4.774666    1.399370   -0.087224   -0.000007   -0.000908   -0.008487
C    -3.563503    0.642075    0.010684   -0.000960    0.000437    0.014531
C    -3.580381   -0.721578    0.088089   -0.001211    0.000714    0.020072
C    -4.810496   -1.463998    0.069402   -0.000896    0.000427    0.012647
C    -4.841486   -2.891399    0.140461   -0.000950    0.000589    0.015535
C    -6.098507   -3.532219    0.134992   -0.001083    0.000866    0.019662
C    -7.288078   -2.820090    0.081310   -0.001087    0.001208    0.023743
C    -7.288131   -1.415171    0.004193   -0.000743    0.000669    0.013610
C    -8.499038   -0.655379   -0.069153   -0.001170    0.001991    0.033767
C    -8.486556    0.707342   -0.155438   -0.000443    0.000605    0.010566
C    -7.255874    1.452451   -0.182698    0.001676   -0.003572   -0.066048
C    -6.026516    0.709475   -0.093635    0.000372   -0.001490   -0.024152
C    -6.038668   -0.723656   -0.008422   -0.000481   -0.000082    0.001198
C    -8.432873    3.667839   -0.401066    0.008804   -0.016067   -0.290930
C    -3.604816   -3.676505    0.201535   -0.000581    0.000924    0.012523
C    -8.541288    5.031100   -0.287598   -0.011810    0.031315    0.481615
C    -3.493607   -4.905878    0.741267    0.001176   -0.000322    0.009339
C    -9.799166    5.688161   -0.450557   -0.003747    0.008133    0.129625
O    -2.324188   -5.588331    0.716703    0.001479    0.000370    0.005084
N   -10.816350    6.242989   -0.577046    0.001985   -0.009093   -0.128896
H    -5.896070    4.604183   -0.371666    0.009166   -0.015156   -0.259199
H    -3.807752    3.333692   -0.180866    0.002130   -0.004219   -0.064745
H    -2.612513    1.181500    0.027243   -0.001421    0.001009    0.023655
H    -2.634903   -1.257095    0.176756   -0.002093    0.001298    0.033921
H    -6.137885   -4.623772    0.140176   -0.001553    0.000898    0.023339
H    -8.242845   -3.353443    0.075048   -0.001517    0.001779    0.035053
H    -9.452099   -1.191718   -0.051508   -0.002690    0.005125    0.084263
H    -9.441386    1.230961   -0.194262   -0.002873    0.004535    0.086382
H    -9.370659    3.106668   -0.614732    0.030903   -0.068607   -1.156944
H    -2.687690   -3.251768   -0.214283   -0.001828    0.002051    0.010894
H    -7.670554    5.699739   -0.051133   -0.037661    0.093514    1.470489
H    -4.337514   -5.404979    1.232897    0.002528   -0.002112    0.009831
H    -2.414220   -6.412249    1.210146    0.002837   -0.001205    0.002708
36
* Frequency(6)  -45.5788
C    -7.208708    2.881354   -0.268068    0.004014   -0.007257   -0.133290
C    -5.948228    3.518243   -0.263551    0.003862   -0.006843   -0.114707
C    -4.765559    2.806698   -0.172724    0.001321   -0.002814   -0.042421
C    -4.774665    1.399452   -0.086452   -0.000007   -0.000908   -0.008487
C    -3.563416    0.642035    0.009363   -0.000960    0.000437    0.014531
C    -3.580271   -0.721643    0.086264   -0.001211    0.000714    0.020072
C    -4.810415   -1.464037    0.068253   -0.000896    0.000427    0.012647
C    -4.841400   -2.891452    0.139048   -0.000950    0.000589    0.015535
C    -6.098408   -3.532298    0.133204   -0.001083    0.000866    0.019662
C    -7.287980   -2.820200    0.079151   -0.001087    0.001208    0.023743
C    -7.288064   -1.415232    0.002955   -0.000743    0.000669    0.013610
C    -8.498932   -0.655560   -0.072223   -0.001170    0.001991    0.033767
C    -8.486516    0.707287   -0.156399   -0.000443    0.000605    0.010566
C    -7.256026    1.452775   -0.176693    0.001676   -0.003572   -0.066048
C    -6.026549    0.709611   -0.091439    0.000372   -0.001490   -0.024152
C    -6.038624   -0.723648   -0.008531   -0.000481   -0.000082    0.001198
C    -8.433674    3.669300   -0.374614    0.008804   -0.016067   -0.290930
C    -3.604764   -3.676589    0.200396   -0.000581    0.000924    0.012523
C    -8.540215    5.028253   -0.331387   -0.011810    0.031315    0.481615
C    -3.493714   -4.905848    0.740418    0.001176   -0.000322    0.009339
C    -9.798826    5.687422   -0.462342   -0.003747    0.008133    0.129625
O    -2.324323   -5.588365    0.716241    0.001479    0.000370    0.005084
N   -10.816531    6.243815   -0.565326    0.001985   -0.009093   -0.128896
H    -5.896903    4.605561   -0.348099    0.009166   -0.015156   -0.259199
H    -3.807945    3.334076   -0.174980    0.002130   -0.004219   -0.064745
H    -2.612384    1.181408    0.025092   -0.001421    0.001009    0.023655
H    -2.634712   -1.257213    0.173672   -0.002093    0.001298    0.033921
H    -6.137744   -4.623854    0.138054   -0.001553    0.000898    0.023339
H    -8.242707   -3.353604    0.071861   -0.001517    0.001779    0.035053
H    -9.451854   -1.192184   -0.059169   -0.002690    0.005125    0.084263
H    -9.441125    1.230548   -0.202116   -0.002873    0.004535    0.086382
H    -9.373469    3.112906   -0.509541    0.030903   -0.068607   -1.156944
H    -2.687524   -3.251955   -0.215274   -0.001828    0.002051    0.010894
H    -7.667130    5.691236   -0.184832   -0.037661    0.093514    1.470489
H    -4.337743   -5.404787    1.232003    0.002528   -0.002112    0.009831
H    -2.414478   -6.412139    1.209899    0.002837   -0.001205    0.002708
36
* Frequency(6)  -45.5788
C    -7.209146    2.882145   -0.253543    0.004014   -0.007257   -0.133290
C    -5.948649    3.518988   -0.251051    0.003862   -0.006843   -0.114707
C    -4.765702    2.807005   -0.168101    0.001321   -0.002814   -0.042421
C    -4.774665    1.399551   -0.085527   -0.000007   -0.000908   -0.008487
C    -3.563311    0.641988    0.007780   -0.000960    0.000437    0.014531
C    -3.580139   -0.721721    0.084077   -0.001211    0.000714    0.020072
C    -4.810317   -1.464084    0.066874   -0.000896    0.000427    0.012647
C    -4.841296   -2.891516    0.137355   -0.000950    0.000589    0.015535
C    -6.098290   -3.532392    0.131061   -0.001083    0.000866    0.019662
C    -7.287861   -2.820332    0.076564   -0.001087    0.001208    0.023743
C    -7.287983   -1.415305    0.001472   -0.000743    0.000669    0.013610
C    -8.498804   -0.655777   -0.075903   -0.001170    0.001991    0.033767
C    -8.486467    0.707221   -0.157550   -0.000443    0.000605    0.010566
C    -7.256209    1.453165   -0.169496    0.001676   -0.003572   -0.066048
C    -6.026590    0.709773   -0.088807    0.000372   -0.001490   -0.024152
C    -6.038571   -0.723639   -0.008662   -0.000481   -0.000082    0.001198
C    -8.434633    3.671051   -0.342910    0.008804   -0.016067   -0.290930
C    -3.604700   -3.676690    0.199031   -0.000581    0.000924    0.012523
C    -8.538928    5.024841   -0.383870   -0.011810    0.031315    0.481615
C    -3.493842   -4.905813    0.739400    0.001176   -0.000322    0.009339
C    -9.798417    5.686536   -0.476468   -0.003747    0.008133    0.129625
O    -2.324484   -5.588405    0.715687    0.001479    0.000370    0.005084
N   -10.816747    6.244806   -0.551280    0.001985   -0.009093   -0.128896
H    -5.897902    4.607212   -0.319853    0.009166   -0.015156   -0.259199
H    -3.808177    3.334535   -0.167924    0.002130   -0.004219   -0.064745
H    -2.612229    1.181298    0.022515   -0.001421    0.001009    0.023655
H    -2.634484   -1.257354    0.169976   -0.002093    0.001298    0.033921
H    -6.137575   -4.623952    0.135510   -0.001553    0.000898    0.023339
H    -8.242542   -3.353798    0.068041   -0.001517    0.001779    0.035053
H    -9.451561   -1.192742   -0.068352   -0.002690    0.005125    0.084263
H    -9.440812    1.230054   -0.211530   -0.002873    0.004535    0.086382
H    -9.376836    3.120382   -0.383465    0.030903   -0.068607   -1.156944
H    -2.687325   -3.252178   -0.216461   -0.001828    0.002051    0.010894
H    -7.663026    5.681046   -0.345076   -0.037661    0.093514    1.470489
H    -4.338019   -5.404557    1.230932    0.002528   -0.002112    0.009831
H    -2.414787   -6.412008    1.209604    0.002837   -0.001205    0.002708
36
* Frequency(6)  -45.5788
C    -7.209608    2.882981   -0.238186    0.004014   -0.007257   -0.133290
C    -5.949094    3.519777   -0.237835    0.003862   -0.006843   -0.114707
C    -4.765855    2.807329   -0.163214    0.001321   -0.002814   -0.042421
C    -4.774664    1.399656   -0.084549   -0.000007   -0.000908   -0.008487
C    -3.563201    0.641937    0.006105   -0.000960    0.000437    0.014531
C    -3.580000   -0.721803    0.081764   -0.001211    0.000714    0.020072
C    -4.810214   -1.464133    0.065417   -0.000896    0.000427    0.012647
C    -4.841187   -2.891584    0.135565   -0.000950    0.000589    0.015535
C    -6.098165   -3.532492    0.128796   -0.001083    0.000866    0.019662
C    -7.287736   -2.820471    0.073828   -0.001087    0.001208    0.023743
C    -7.287897   -1.415382   -0.000096   -0.000743    0.000669    0.013610
C    -8.498670   -0.656006   -0.079793   -0.001170    0.001991    0.033767
C    -8.486416    0.707152   -0.158768   -0.000443    0.000605    0.010566
C    -7.256402    1.453576   -0.161886    0.001676   -0.003572   -0.066048
C    -6.026633    0.709945   -0.086025    0.000372   -0.001490   -0.024152
C    -6.038516   -0.723630   -0.008800   -0.000481   -0.000082    0.001198
C    -8.435648    3.672902   -0.309391    0.008804   -0.016067   -0.290930
C    -3.604633   -3.676797    0.197588   -0.000581    0.000924    0.012523
C    -8.537567    5.021233   -0.439360   -0.011810    0.031315    0.481615
C    -3.493977   -4.905776    0.738325    0.001176   -0.000322    0.009339
C    -9.797986    5.685599   -0.491403   -0.003747    0.008133    0.129625
O    -2.324655   -5.588448    0.715102    0.001479    0.000370    0.005084
N   -10.816976    6.245854   -0.536429    0.001985   -0.009093   -0.128896
H    -5.898958    4.608958   -0.289989    0.009166   -0.015156   -0.259199
H    -3.808423    3.335021   -0.160464    0.002130   -0.004219   -0.064745
H    -2.612065    1.181182    0.019789   -0.001421    0.001009    0.023655
H    -2.634243   -1.257504    0.166067   -0.002093    0.001298    0.033921
H    -6.137396   -4.624055    0.132821   -0.001553    0.000898    0.023339
H    -8.242367   -3.354003    0.064003   -0.001517    0.001779    0.035053
H    -9.451251   -1.193333   -0.078060   -0.002690    0.005125    0.084263
H    -9.440481    1.229532   -0.221482   -0.002873    0.004535    0.086382
H    -9.380397    3.128287   -0.250166    0.030903   -0.068607   -1.156944
H    -2.687114   -3.252415   -0.217716   -0.001828    0.002051    0.010894
H    -7.658687    5.670272   -0.514501   -0.037661    0.093514    1.470489
H    -4.338310   -5.404314    1.229799    0.002528   -0.002112    0.009831