Start Job  on nano17

                                 *****************
                                 * O   R   C   A *
                                 *****************

                                            #,                                       
                                            ###                                      
                                            ####                                     
                                            #####                                    
                                            ######                                   
                                           ########,                                 
                                     ,,################,,,,,                         
                               ,,#################################,,                 
                          ,,##########################################,,             
                       ,#########################################, ''#####,          
                    ,#############################################,,   '####,        
                  ,##################################################,,,,####,       
                ,###########''''           ''''###############################       
              ,#####''   ,,,,##########,,,,          '''####'''          '####       
            ,##' ,,,,###########################,,,                        '##       
           ' ,,###''''                  '''############,,,                           
         ,,##''                                '''############,,,,        ,,,,,,###''
      ,#''                                            '''#######################'''  
     '                                                          ''''####''''         
             ,#######,   #######,   ,#######,      ##                                
            ,#'     '#,  ##    ##  ,#'     '#,    #''#        ######   ,####,        
            ##       ##  ##   ,#'  ##            #'  '#       #        #'  '#        
            ##       ##  #######   ##           ,######,      #####,   #    #        
            '#,     ,#'  ##    ##  '#,     ,#' ,#      #,         ##   #,  ,#        
             '#######'   ##     ##  '#######'  #'      '#     #####' # '####'        



                  #######################################################
                  #                        -***-                        #
                  #          Department of theory and spectroscopy      #
                  #    Directorship and core code : Frank Neese         #
                  #        Max Planck Institute fuer Kohlenforschung    #
                  #                Kaiser Wilhelm Platz 1               #
                  #                 D-45470 Muelheim/Ruhr               #
                  #                      Germany                        #
                  #                                                     #
                  #                  All rights reserved                #
                  #                        -***-                        #
                  #######################################################


                         Program Version 5.0.4 -  RELEASE  -


 With contributions from (in alphabetic order):
   Daniel Aravena         : Magnetic Suceptibility
   Michael Atanasov       : Ab Initio Ligand Field Theory (pilot matlab implementation)
   Alexander A. Auer      : GIAO ZORA, VPT2 properties, NMR spectrum
   Ute Becker             : Parallelization
   Giovanni Bistoni       : ED, misc. LED, open-shell LED, HFLD
   Martin Brehm           : Molecular dynamics
   Dmytro Bykov           : SCF Hessian
   Vijay G. Chilkuri      : MRCI spin determinant printing, contributions to CSF-ICE
   Dipayan Datta          : RHF DLPNO-CCSD density
   Achintya Kumar Dutta   : EOM-CC, STEOM-CC
   Dmitry Ganyushin       : Spin-Orbit,Spin-Spin,Magnetic field MRCI
   Miquel Garcia          : C-PCM and meta-GGA Hessian, CC/C-PCM, Gaussian charge scheme
   Yang Guo               : DLPNO-NEVPT2, F12-NEVPT2, CIM, IAO-localization
   Andreas Hansen         : Spin unrestricted coupled pair/coupled cluster methods
   Benjamin Helmich-Paris : MC-RPA, TRAH-SCF, COSX integrals
   Lee Huntington         : MR-EOM, pCC
   Robert Izsak           : Overlap fitted RIJCOSX, COSX-SCS-MP3, EOM
   Marcus Kettner         : VPT2
   Christian Kollmar      : KDIIS, OOCD, Brueckner-CCSD(T), CCSD density, CASPT2, CASPT2-K
   Simone Kossmann        : Meta GGA functionals, TD-DFT gradient, OOMP2, MP2 Hessian
   Martin Krupicka        : Initial AUTO-CI
   Lucas Lang             : DCDCAS
   Marvin Lechner         : AUTO-CI (C++ implementation), FIC-MRCC
   Dagmar Lenk            : GEPOL surface, SMD
   Dimitrios Liakos       : Extrapolation schemes; Compound Job, initial MDCI parallelization
   Dimitrios Manganas     : Further ROCIS development; embedding schemes
   Dimitrios Pantazis     : SARC Basis sets
   Anastasios Papadopoulos: AUTO-CI, single reference methods and gradients
   Taras Petrenko         : DFT Hessian,TD-DFT gradient, ASA, ECA, R-Raman, ABS, FL, XAS/XES, NRVS
   Peter Pinski           : DLPNO-MP2, DLPNO-MP2 Gradient
   Christoph Reimann      : Effective Core Potentials
   Marius Retegan         : Local ZFS, SOC
   Christoph Riplinger    : Optimizer, TS searches, QM/MM, DLPNO-CCSD(T), (RO)-DLPNO pert. Triples
   Tobias Risthaus        : Range-separated hybrids, TD-DFT gradient, RPA, STAB
   Michael Roemelt        : Original ROCIS implementation
   Masaaki Saitow         : Open-shell DLPNO-CCSD energy and density
   Barbara Sandhoefer     : DKH picture change effects
   Avijit Sen             : IP-ROCIS
   Kantharuban Sivalingam : CASSCF convergence, NEVPT2, FIC-MRCI
   Bernardo de Souza      : ESD, SOC TD-DFT
   Georgi Stoychev        : AutoAux, RI-MP2 NMR, DLPNO-MP2 response
   Willem Van den Heuvel  : Paramagnetic NMR
   Boris Wezisla          : Elementary symmetry handling
   Frank Wennmohs         : Technical directorship


 We gratefully acknowledge several colleagues who have allowed us to
 interface, adapt or use parts of their codes:
   Stefan Grimme, W. Hujo, H. Kruse, P. Pracht,  : VdW corrections, initial TS optimization,
                  C. Bannwarth, S. Ehlert          DFT functionals, gCP, sTDA/sTD-DF
   Ed Valeev, F. Pavosevic, A. Kumar             : LibInt (2-el integral package), F12 methods
   Garnet Chan, S. Sharma, J. Yang, R. Olivares  : DMRG
   Ulf Ekstrom                                   : XCFun DFT Library
   Mihaly Kallay                                 : mrcc  (arbitrary order and MRCC methods)
   Jiri Pittner, Ondrej Demel                    : Mk-CCSD
   Frank Weinhold                                : gennbo (NPA and NBO analysis)
   Christopher J. Cramer and Donald G. Truhlar   : smd solvation model
   Lars Goerigk                                  : TD-DFT with DH, B97 family of functionals
   V. Asgeirsson, H. Jonsson                     : NEB implementation
   FAccTs GmbH                                   : IRC, NEB, NEB-TS, DLPNO-Multilevel, CI-OPT
                                                   MM, QMMM, 2- and 3-layer-ONIOM, Crystal-QMMM,
                                                   LR-CPCM, SF, NACMEs, symmetry and pop. for TD-DFT,
                                                   nearIR, NL-DFT gradient (VV10), updates on ESD,
                                                   ML-optimized integration grids
   S Lehtola, MJT Oliveira, MAL Marques          : LibXC Library
   Liviu Ungur et al                             : ANISO software


 Your calculation uses the libint2 library for the computation of 2-el integrals
 For citations please refer to: http://libint.valeyev.net

 Your ORCA version has been built with support for libXC version: 5.1.0
 For citations please refer to: https://tddft.org/programs/libxc/

 This ORCA versions uses:
   CBLAS   interface :  Fast vector & matrix operations
   LAPACKE interface :  Fast linear algebra routines
   SCALAPACK package :  Parallel linear algebra routines
   Shared memory     :  Shared parallel matrices
   BLAS/LAPACK       :  OpenBLAS 0.3.15  USE64BITINT DYNAMIC_ARCH NO_AFFINITY Zen SINGLE_THREADED
        Core in use  :  Zen
   Copyright (c) 2011-2014, The OpenBLAS Project


================================================================================

----- Orbital basis set information -----
Your calculation utilizes the basis: def2-SVP
   F. Weigend and R. Ahlrichs, Phys. Chem. Chem. Phys. 7, 3297 (2005).

----- AuxJ basis set information -----
Your calculation utilizes the auxiliary basis: def2/J
   F. Weigend, Phys. Chem. Chem. Phys. 8, 1057 (2006).

================================================================================
                                        WARNINGS
                       Please study these warnings very carefully!
================================================================================


WARNING: Geometry Optimization
  ===> : Switching off AutoStart
         For restart on a previous wavefunction, please use MOREAD

INFO   : the flag for use of the SHARK integral package has been found!

================================================================================
                                       INPUT FILE
================================================================================
NAME = NC_OH_3.inp
|  1> ! B3LYP def2-SVP Opt PAL8 FREQ defgrid3 slowconv VeryTightSCF
|  2> *xyz 0 1
|  3>  C        -7.212639        2.890011       -0.262604
|  4>  C        -5.953859        3.529407       -0.264073
|  5>  C        -4.770151        2.821180       -0.160291
|  6>  C        -4.777689        1.415848       -0.050655
|  7>  C        -3.566231        0.662075        0.060872
|  8>  C        -3.579977       -0.699930        0.159340
|  9>  C        -4.806245       -1.450344        0.152358
| 10>  C        -4.836502       -2.880202        0.233390
| 11>  C        -6.098390       -3.515665        0.236109
| 12>  C        -7.285053       -2.804371        0.170402
| 13>  C        -7.285510       -1.399618        0.074651
| 14>  C        -8.496658       -0.645007       -0.021956
| 15>  C        -8.486705        0.716493       -0.130001
| 16>  C        -7.257649        1.462489       -0.148641
| 17>  C        -6.027202        0.722460       -0.045840
| 18>  C        -6.036090       -0.709900        0.061203
| 19>  C        -8.439050        3.674267       -0.375498
| 20>  C        -3.598809       -3.660629        0.285582
| 21>  C        -8.544079        5.022671       -0.495417
| 22>  C        -3.502774       -4.990138        0.586281
| 23>  C        -9.804522        5.680547       -0.598579
| 24>  O        -2.283997       -5.595022        0.553372
| 25>  N       -10.824086        6.234890       -0.684006
| 26>  H        -5.904777        4.616614       -0.347833
| 27>  H        -3.813438        3.350151       -0.162224
| 28>  H        -2.615670        1.202543        0.068533
| 29>  H        -2.628299       -1.222091        0.252368
| 30>  H        -6.152225       -4.607449        0.263275
| 31>  H        -8.239778       -3.337807        0.171335
| 32>  H        -9.448213       -1.184023       -0.009501
| 33>  H        -9.441452        1.236485       -0.201166
| 34>  H        -9.381537        3.124952       -0.363779
| 35>  H        -2.633355       -3.142921        0.048006
| 36>  H        -7.668136        5.677046       -0.518738
| 37>  H        -4.384713       -5.646607        0.876333
| 38>  H        -2.405306       -6.540149        0.840493
| 39> *
| 40> 
| 41>                          ****END OF INPUT****
================================================================================

                       *****************************
                       * Geometry Optimization Run *
                       *****************************

Geometry optimization settings:
Update method            Update   .... BFGS
Choice of coordinates    CoordSys .... Z-matrix Internals
Initial Hessian          InHess   .... Almoef's Model

Convergence Tolerances:
Energy Change            TolE     ....  5.0000e-06 Eh
Max. Gradient            TolMAXG  ....  3.0000e-04 Eh/bohr
RMS Gradient             TolRMSG  ....  1.0000e-04 Eh/bohr
Max. Displacement        TolMAXD  ....  4.0000e-03 bohr
RMS Displacement         TolRMSD  ....  2.0000e-03 bohr
Strict Convergence                ....  False
------------------------------------------------------------------------------
                        ORCA OPTIMIZATION COORDINATE SETUP
------------------------------------------------------------------------------

The optimization will be done in new redundant internal coordinates
Making redundant internal coordinates   ...  (new redundants) done
Evaluating the initial hessian          ...  (Almloef) done
Evaluating the coordinates              ...  done
Calculating the B-matrix                .... done
Calculating the G-matrix                .... done
Diagonalizing the G-matrix              .... done
Small eigenvalue found = 5.802e-03
Small eigenvalue found = 1.164e-02
Small eigenvalue found = 1.625e-02
The first mode is                       ....   94
The number of degrees of freedom        ....  102

    -----------------------------------------------------------------
                    Redundant Internal Coordinates


    -----------------------------------------------------------------
         Definition                    Initial Value    Approx d2E/dq
    -----------------------------------------------------------------
      1. B(C   1,C   0)                  1.4119         0.576578   
      2. B(C   2,C   1)                  1.3833         0.640364   
      3. B(C   3,C   2)                  1.4096         0.581343   
      4. B(C   4,C   3)                  1.4312         0.537103   
      5. B(C   5,C   4)                  1.3656         0.683315   
      6. B(C   6,C   5)                  1.4377         0.524420   
      7. B(C   7,C   6)                  1.4325         0.534537   
      8. B(C   8,C   7)                  1.4129         0.574463   
      9. B(C   9,C   8)                  1.3851         0.636210   
     10. B(C  10,C   9)                  1.4080         0.584791   
     11. B(C  11,C  10)                  1.4303         0.538893   
     12. B(C  12,C  11)                  1.3658         0.682844   
     13. B(C  13,C  12)                  1.4379         0.524063   
     14. B(C  13,C   0)                  1.4328         0.533950   
     15. B(C  14,C   3)                  1.4290         0.541362   
     16. B(C  14,C  13)                  1.4395         0.520879   
     17. B(C  15,C  14)                  1.4364         0.526914   
     18. B(C  15,C  10)                  1.4272         0.544960   
     19. B(C  15,C   6)                  1.4384         0.522961   
     20. B(C  16,C   0)                  1.4601         0.482949   
     21. B(C  17,C   7)                  1.4641         0.475850   
     22. B(C  18,C  16)                  1.3578         0.703268   
     23. B(C  19,C  17)                  1.3665         0.681210   
     24. B(C  20,C  18)                  1.4255         0.548327   
     25. B(O  21,C  19)                  1.3610         0.622452   
     26. B(N  22,C  20)                  1.1637         1.285247   
     27. B(H  23,C   1)                  1.0915         0.358078   
     28. B(H  24,C   2)                  1.0932         0.355875   
     29. B(H  25,C   4)                  1.0935         0.355507   
     30. B(H  26,C   5)                  1.0895         0.360770   
     31. B(H  27,C   8)                  1.0934         0.355568   
     32. B(H  28,C   9)                  1.0936         0.355313   
     33. B(H  29,C  11)                  1.0937         0.355256   
     34. B(H  30,C  12)                  1.0895         0.360770   
     35. B(H  31,C  16)                  1.0909         0.358849   
     36. B(H  32,C  17)                  1.1210         0.321380   
     37. B(H  33,C  18)                  1.0936         0.355330   
     38. B(H  34,C  19)                  1.1371         0.302933   
     39. B(H  35,O  21)                  0.9952         0.456889   
     40. A(C   1,C   0,C  16)          120.3677         0.409782   
     41. A(C   1,C   0,C  13)          118.6401         0.417154   
     42. A(C  13,C   0,C  16)          120.9922         0.404253   
     43. A(C   2,C   1,H  23)          118.5049         0.354508   
     44. A(C   0,C   1,H  23)          119.4228         0.348277   
     45. A(C   0,C   1,C   2)          122.0723         0.430933   
     46. A(C   1,C   2,C   3)          120.7761         0.431571   
     47. A(C   1,C   2,H  24)          120.0663         0.354137   
     48. A(C   3,C   2,H  24)          119.1576         0.348397   
     49. A(C   2,C   3,C  14)          119.2539         0.418793   
     50. A(C   2,C   3,C   4)          121.7770         0.418204   
     51. A(C   4,C   3,C  14)          118.9687         0.412938   
     52. A(C   5,C   4,H  25)          120.0788         0.357999   
     53. A(C   3,C   4,C   5)          121.4923         0.430469   
     54. A(C   3,C   4,H  25)          118.4287         0.343732   
     55. A(C   4,C   5,H  26)          118.3829         0.358895   
     56. A(C   4,C   5,C   6)          121.9254         0.428627   
     57. A(C   6,C   5,H  26)          119.6903         0.343202   
     58. A(C   5,C   6,C   7)          122.5988         0.410266   
     59. A(C   7,C   6,C  15)          119.9566         0.410064   
     60. A(C   5,C   6,C  15)          117.4445         0.408678   
     61. A(C   6,C   7,C   8)          117.8996         0.416963   
     62. A(C   8,C   7,C  17)          121.0110         0.408442   
     63. A(C   6,C   7,C  17)          121.0790         0.403276   
     64. A(C   9,C   8,H  27)          118.1485         0.353695   
     65. A(C   7,C   8,H  27)          119.5449         0.347649   
     66. A(C   7,C   8,C   9)          122.2852         0.430146   
     67. A(C  10,C   9,H  28)          119.1046         0.348652   
     68. A(C   8,C   9,H  28)          119.8280         0.353652   
     69. A(C   8,C   9,C  10)          121.0548         0.431525   
     70. A(C  11,C  10,C  15)          119.0586         0.413668   
     71. A(C   9,C  10,C  15)          118.8488         0.419730   
     72. A(C   9,C  10,C  11)          122.0900         0.418894   
     73. A(C  10,C  11,H  29)          118.4218         0.343883   
     74. A(C  10,C  11,C  12)          121.6755         0.430673   
     75. A(C  12,C  11,H  29)          119.9026         0.357914   
     76. A(C  13,C  12,H  30)          120.0393         0.343163   
     77. A(C  11,C  12,H  30)          118.3301         0.358853   
     78. A(C  11,C  12,C  13)          121.6305         0.428522   
     79. A(C  12,C  13,C  14)          117.5804         0.408341   
     80. A(C   0,C  13,C  14)          119.4080         0.409694   
     81. A(C   0,C  13,C  12)          123.0115         0.410137   
     82. A(C  13,C  14,C  15)          120.8422         0.408733   
     83. A(C   3,C  14,C  15)          119.3092         0.411536   
     84. A(C   3,C  14,C  13)          119.8486         0.410697   
     85. A(C  10,C  15,C  14)          119.2110         0.412020   
     86. A(C   6,C  15,C  14)          120.8471         0.409022   
     87. A(C   6,C  15,C  10)          119.9418         0.411470   
     88. A(C  18,C  16,H  31)          115.7319         0.360331   
     89. A(C   0,C  16,H  31)          117.0239         0.338205   
     90. A(C   0,C  16,C  18)          127.2441         0.424532   
     91. A(C  19,C  17,H  32)          115.8144         0.351740   
     92. A(C   7,C  17,H  32)          118.3163         0.331248   
     93. A(C   7,C  17,C  19)          125.8644         0.421006   
     94. A(C  20,C  18,H  33)          115.5000         0.344898   
     95. A(C  16,C  18,H  33)          122.2857         0.359726   
     96. A(C  16,C  18,C  20)          122.2143         0.434314   
     97. A(O  21,C  19,H  34)          116.3688         0.340919   
     98. A(C  17,C  19,H  34)          124.2876         0.348249   
     99. A(C  17,C  19,O  21)          119.3423         0.438910   
    100. L(C  18,C  20,N  22,H  33, 2) 179.9915         0.481550   
    101. L(C  18,C  20,N  22,H  33, 1) 179.0294         0.481550   
    102. A(C  19,O  21,H  35)          107.8148         0.362252   
    103. D(H  23,C   1,C   0,C  13)   -179.8534         0.022828   
    104. D(H  23,C   1,C   0,C  16)      0.1560         0.022828   
    105. D(C   2,C   1,C   0,C  13)      0.0501         0.022828   
    106. D(C   2,C   1,C   0,C  16)   -179.9405         0.022828   
    107. D(C   3,C   2,C   1,C   0)      0.1379         0.028493   
    108. D(C   3,C   2,C   1,H  23)   -179.9578         0.028493   
    109. D(H  24,C   2,C   1,H  23)      0.0635         0.028493   
    110. D(H  24,C   2,C   1,C   0)   -179.8409         0.028493   
    111. D(C  14,C   3,C   2,H  24)    179.9042         0.023224   
    112. D(C   4,C   3,C   2,C   1)   -179.8570         0.023224   
    113. D(C   4,C   3,C   2,H  24)      0.1219         0.023224   
    114. D(C  14,C   3,C   2,C   1)     -0.0748         0.023224   
    115. D(H  25,C   4,C   3,C   2)      0.5175         0.019705   
    116. D(C   5,C   4,C   3,C   2)   -179.6320         0.019705   
    117. D(C   5,C   4,C   3,C  14)      0.5851         0.019705   
    118. D(H  25,C   4,C   3,C  14)   -179.2653         0.019705   
    119. D(H  26,C   5,C   4,H  25)      0.4738         0.032755   
    120. D(C   6,C   5,C   4,C   3)      0.1974         0.032755   
    121. D(C   6,C   5,C   4,H  25)   -179.9546         0.032755   
    122. D(H  26,C   5,C   4,C   3)   -179.3742         0.032755   
    123. D(C  15,C   6,C   5,H  26)    178.4686         0.018762   
    124. D(C  15,C   6,C   5,C   4)     -1.0975         0.018762   
    125. D(C   7,C   6,C   5,H  26)     -1.4529         0.018762   
    126. D(C   7,C   6,C   5,C   4)    178.9810         0.018762   
    127. D(C  17,C   7,C   6,C  15)    178.1047         0.019512   
    128. D(C  17,C   7,C   6,C   5)     -1.9756         0.019512   
    129. D(C   8,C   7,C   6,C  15)     -0.7331         0.019512   
    130. D(C   8,C   7,C   6,C   5)    179.1865         0.019512   
    131. D(H  27,C   8,C   7,C   6)    177.9626         0.022653   
    132. D(C   9,C   8,C   7,C  17)   -179.1635         0.022653   
    133. D(C   9,C   8,C   7,C   6)     -0.3248         0.022653   
    134. D(H  27,C   8,C   7,C  17)     -0.8761         0.022653   
    135. D(H  28,C   9,C   8,H  27)      1.4565         0.028100   
    136. D(H  28,C   9,C   8,C   7)    179.7667         0.028100   
    137. D(C  10,C   9,C   8,H  27)   -177.2443         0.028100   
    138. D(C  10,C   9,C   8,C   7)      1.0659         0.028100   
    139. D(C  15,C  10,C   9,H  28)   -179.4152         0.023514   
    140. D(C  15,C  10,C   9,C   8)     -0.7052         0.023514   
    141. D(C  11,C  10,C   9,H  28)     -0.0116         0.023514   
    142. D(C  11,C  10,C   9,C   8)    178.6984         0.023514   
    143. D(H  29,C  11,C  10,C  15)   -179.9314         0.019841   
    144. D(H  29,C  11,C  10,C   9)      0.6662         0.019841   
    145. D(C  12,C  11,C  10,C  15)      0.1705         0.019841   
    146. D(C  12,C  11,C  10,C   9)   -179.2318         0.019841   
    147. D(H  30,C  12,C  11,H  29)      0.0458         0.032706   
    148. D(H  30,C  12,C  11,C  10)    179.9424         0.032706   
    149. D(C  13,C  12,C  11,H  29)    179.9343         0.032706   
    150. D(C  13,C  12,C  11,C  10)     -0.1692         0.032706   
    151. D(C  14,C  13,C  12,H  30)    179.7475         0.018736   
    152. D(C   0,C  13,C  12,H  30)     -0.2001         0.018736   
    153. D(C   0,C  13,C  12,C  11)    179.9133         0.018736   
    154. D(C  14,C  13,C   0,C  16)    179.6966         0.019468   
    155. D(C  14,C  13,C   0,C   1)     -0.2940         0.019468   
    156. D(C  14,C  13,C  12,C  11)     -0.1390         0.018736   
    157. D(C  12,C  13,C   0,C  16)     -0.3567         0.019468   
    158. D(C  12,C  13,C   0,C   1)    179.6528         0.019468   
    159. D(C   3,C  14,C  13,C  12)   -179.5937         0.018504   
    160. D(C   3,C  14,C  13,C   0)      0.3559         0.018504   
    161. D(C  15,C  14,C   3,C   4)     -0.4236         0.020028   
    162. D(C  15,C  14,C   3,C   2)    179.7879         0.020028   
    163. D(C  13,C  14,C   3,C   4)    179.6165         0.020028   
    164. D(C  15,C  14,C  13,C   0)   -179.6033         0.018504   
    165. D(C  13,C  14,C   3,C   2)     -0.1719         0.020028   
    166. D(C  15,C  14,C  13,C  12)      0.4471         0.018504   
    167. D(C  10,C  15,C  14,C  13)     -0.4487         0.018945   
    168. D(C   6,C  15,C  14,C  13)    179.4612         0.018945   
    169. D(C   6,C  15,C  14,C   3)     -0.4982         0.018945   
    170. D(C  14,C  15,C  10,C  11)      0.1377         0.020304   
    171. D(C  14,C  15,C  10,C   9)    179.5596         0.020304   
    172. D(C   6,C  15,C  10,C  11)   -179.7730         0.020304   
    173. D(C   6,C  15,C  10,C   9)     -0.3511         0.020304   
    174. D(C  14,C  15,C   6,C   7)   -178.8401         0.018656   
    175. D(C  14,C  15,C   6,C   5)      1.2362         0.018656   
    176. D(C  10,C  15,C  14,C   3)    179.5919         0.018945   
    177. D(C  10,C  15,C   6,C   7)      1.0691         0.018656   
    178. D(C  10,C  15,C   6,C   5)   -178.8546         0.018656   
    179. D(H  31,C  16,C   0,C  13)      0.2965         0.015880   
    180. D(H  31,C  16,C   0,C   1)   -179.7132         0.015880   
    181. D(C  18,C  16,C   0,C  13)   -179.6652         0.015880   
    182. D(C  18,C  16,C   0,C   1)      0.3252         0.015880   
    183. D(H  32,C  17,C   7,C   8)    166.2803         0.015417   
    184. D(H  32,C  17,C   7,C   6)    -12.5213         0.015417   
    185. D(C  19,C  17,C   7,C   8)    -12.8790         0.015417   
    186. D(C  19,C  17,C   7,C   6)    168.3193         0.015417   
    187. D(H  33,C  18,C  16,H  31)   -179.9964         0.034861   
    188. D(H  33,C  18,C  16,C   0)     -0.0343         0.034861   
    189. D(C  20,C  18,C  16,H  31)      0.0435         0.034861   
    190. D(C  20,C  18,C  16,C   0)   -179.9945         0.034861   
    191. D(H  34,C  19,C  17,H  32)    178.2352         0.032538   
    192. D(H  34,C  19,C  17,C   7)     -2.5869         0.032538   
    193. D(O  21,C  19,C  17,H  32)     -1.3328         0.032538   
    194. D(O  21,C  19,C  17,C   7)    177.8451         0.032538   
    195. D(H  35,O  21,C  19,H  34)     -2.2820         0.028442   
    196. D(H  35,O  21,C  19,C  17)    177.3197         0.028442   
    -----------------------------------------------------------------

Number of atoms                         .... 36
Number of degrees of freedom            .... 196

         *************************************************************
         *                GEOMETRY OPTIMIZATION CYCLE   1            *
         *************************************************************
---------------------------------
CARTESIAN COORDINATES (ANGSTROEM)
---------------------------------
  C     -7.212639    2.890011   -0.262604
  C     -5.953859    3.529407   -0.264073
  C     -4.770151    2.821180   -0.160291
  C     -4.777689    1.415848   -0.050655
  C     -3.566231    0.662075    0.060872
  C     -3.579977   -0.699930    0.159340
  C     -4.806245   -1.450344    0.152358
  C     -4.836502   -2.880202    0.233390
  C     -6.098390   -3.515665    0.236109
  C     -7.285053   -2.804371    0.170402
  C     -7.285510   -1.399618    0.074651
  C     -8.496658   -0.645007   -0.021956
  C     -8.486705    0.716493   -0.130001
  C     -7.257649    1.462489   -0.148641
  C     -6.027202    0.722460   -0.045840
  C     -6.036090   -0.709900    0.061203
  C     -8.439050    3.674267   -0.375498
  C     -3.598809   -3.660629    0.285582
  C     -8.544079    5.022671   -0.495417
  C     -3.502774   -4.990138    0.586281
  C     -9.804522    5.680547   -0.598579
  O     -2.283997   -5.595022    0.553372
  N    -10.824086    6.234890   -0.684006
  H     -5.904777    4.616614   -0.347833
  H     -3.813438    3.350151   -0.162224
  H     -2.615670    1.202543    0.068533
  H     -2.628299   -1.222091    0.252368
  H     -6.152225   -4.607449    0.263275
  H     -8.239778   -3.337807    0.171335
  H     -9.448213   -1.184023   -0.009501
  H     -9.441452    1.236485   -0.201166
  H     -9.381537    3.124952   -0.363779
  H     -2.633355   -3.142921    0.048006
  H     -7.668136    5.677046   -0.518738
  H     -4.384713   -5.646607    0.876333
  H     -2.405306   -6.540149    0.840493

----------------------------
CARTESIAN COORDINATES (A.U.)
----------------------------
  NO LB      ZA    FRAG     MASS         X           Y           Z
   0 C     6.0000    0    12.011  -13.629912    5.461329   -0.496250
   1 C     6.0000    0    12.011  -11.251163    6.669613   -0.499026
   2 C     6.0000    0    12.011   -9.014279    5.331258   -0.302906
   3 C     6.0000    0    12.011   -9.028524    2.675565   -0.095724
   4 C     6.0000    0    12.011   -6.739200    1.251140    0.115031
   5 C     6.0000    0    12.011   -6.765176   -1.322676    0.301109
   6 C     6.0000    0    12.011   -9.082487   -2.740753    0.287915
   7 C     6.0000    0    12.011   -9.139664   -5.442793    0.441043
   8 C     6.0000    0    12.011  -11.524287   -6.643644    0.446181
   9 C     6.0000    0    12.011  -13.766755   -5.299493    0.322013
  10 C     6.0000    0    12.011  -13.767619   -2.644895    0.141070
  11 C     6.0000    0    12.011  -16.056357   -1.218887   -0.041491
  12 C     6.0000    0    12.011  -16.037548    1.353976   -0.245666
  13 C     6.0000    0    12.011  -13.714969    2.763704   -0.280891
  14 C     6.0000    0    12.011  -11.389761    1.365252   -0.086625
  15 C     6.0000    0    12.011  -11.406557   -1.341517    0.115657
  16 C     6.0000    0    12.011  -15.947493    6.943358   -0.709588
  17 C     6.0000    0    12.011   -6.800763   -6.917586    0.539672
  18 C     6.0000    0    12.011  -16.145969    9.491473   -0.936202
  19 C     6.0000    0    12.011   -6.619284   -9.429994    1.107911
  20 C     6.0000    0    12.011  -18.527861   10.734678   -1.131150
  21 O     8.0000    0    15.999   -4.316129  -10.573059    1.045722
  22 N     7.0000    0    14.007  -20.454558   11.782235   -1.292584
  23 H     1.0000    0     1.008  -11.158411    8.724136   -0.657309
  24 H     1.0000    0     1.008   -7.206353    6.330868   -0.306559
  25 H     1.0000    0     1.008   -4.942900    2.272477    0.129509
  26 H     1.0000    0     1.008   -4.966765   -2.309417    0.476906
  27 H     1.0000    0     1.008  -11.626020   -8.706817    0.497518
  28 H     1.0000    0     1.008  -15.570924   -6.307541    0.323776
  29 H     1.0000    0     1.008  -17.854535   -2.237479   -0.017954
  30 H     1.0000    0     1.008  -17.841759    2.336618   -0.380149
  31 H     1.0000    0     1.008  -17.728536    5.905303   -0.687443
  32 H     1.0000    0     1.008   -4.976320   -5.939260    0.090718
  33 H     1.0000    0     1.008  -14.490677   10.728062   -0.980273
  34 H     1.0000    0     1.008   -8.285907  -10.670541    1.656029
  35 H     1.0000    0     1.008   -4.545370  -12.359090    1.588302

--------------------------------
INTERNAL COORDINATES (ANGSTROEM)
--------------------------------
 C      0   0   0     0.000000000000     0.00000000     0.00000000
 C      1   0   0     1.411862773494     0.00000000     0.00000000
 C      2   1   0     1.383300696276   122.07230682     0.00000000
 C      3   2   1     1.409622255842   120.77609259     0.13785478
 C      4   3   2     1.431168226667   121.77703313   180.14297130
 C      5   4   3     1.365628983130   121.49233741   180.36797218
 C      6   5   4     1.437672816584   121.92539919     0.19739762
 C      7   6   5     1.432471839597   122.59882496   178.98096515
 C      8   7   6     1.412863030118   117.89956082   179.18650898
 C      9   8   7     1.385072431266   122.28519634   359.67522916
 C     10   9   8     1.408012590093   121.05482981     1.06591112
 C     11  10   9     1.430262266745   122.08995246   178.69837904
 C     12  11  10     1.365816618084   121.67552655   180.76815431
 C      1   2   3     1.432770925847   118.64009798     0.05011131
 C      4   3   2     1.429018138422   119.25392123   359.92524484
 C     11  10   9     1.427214806758   118.84876904   359.29479102
 C      1   2   3     1.460098102763   120.36772368   180.05952753
 C      8   7   6     1.464129184684   121.07902455   358.02437102
 C     17   1   2     1.357794168723   127.24411018     0.32518105
 C     18   8   7     1.366468730307   125.86441542   168.31933433
 C     19  17   1     1.425538419640   122.21427320   180.00553645
 O     20  18   8     1.361023523480   119.34228452   177.84506227
 N     21  19  17     1.163660038015   179.02940717   180.20315644
 H      2   1   3     1.091532794364   119.42275688   180.09647128
 H      3   2   1     1.093212614133   120.06633696   180.15908958
 H      5   4   3     1.093494656899   118.42868219     0.51753821
 H      6   5   4     1.089494072673   118.38290422   180.62581547
 H      9   8   7     1.093447987532   119.54494839   177.96255732
 H     10   9   8     1.093642840332   119.82799625   179.76665429
 H     12  11  10     1.093686560814   118.42182229     0.66620816
 H     13  12  11     1.089494364968   118.33012632   179.94240104
 H     17   1   2     1.090947317406   117.02393609   180.28683080
 H     18   8   7     1.120966259597   118.31627854   347.47867820
 H     19  17   1     1.093630032925   122.28567643   359.96571931
 H     20  18   8     1.137056775357   124.28762513   357.41312842
 H     22  20  18     0.995198165317   107.81484202   177.31968857

---------------------------
INTERNAL COORDINATES (A.U.)
---------------------------
 C      0   0   0     0.000000000000     0.00000000     0.00000000
 C      1   0   0     2.668033980581     0.00000000     0.00000000
 C      2   1   0     2.614059476824   122.07230682     0.00000000
 C      3   2   1     2.663800015821   120.77609259     0.13785478
 C      4   3   2     2.704515999971   121.77703313   180.14297130
 C      5   4   3     2.580664778661   121.49233741   180.36797218
 C      6   5   4     2.716807893527   121.92539919     0.19739762
 C      7   6   5     2.706979471392   122.59882496   178.98096515
 C      8   7   6     2.669924191665   117.89956082   179.18650898
 C      9   8   7     2.617407570738   122.28519634   359.67522916
 C     10   9   8     2.660758188388   121.05482981     1.06591112
 C     11  10   9     2.702803983829   122.08995246   178.69837904
 C     12  11  10     2.581019357337   121.67552655   180.76815431
 C      1   2   3     2.707544662496   118.64009798     0.05011131
 C      4   3   2     2.700452922023   119.25392123   359.92524484
 C     11  10   9     2.697045119049   118.84876904   359.29479102
 C      1   2   3     2.759185542881   120.36772368   180.05952753
 C      8   7   6     2.766803183733   121.07902455   358.02437102
 C     17   1   2     2.565859125122   127.24411018     0.32518105
 C     18   8   7     2.582251670847   125.86441542   168.31933433
 C     19  17   1     2.693877206502   122.21427320   180.00553645
 O     20  18   8     2.571961721202   119.34228452   177.84506227
 N     21  19  17     2.198998784837   179.02940717   180.20315644
 H      2   1   3     2.062698047543   119.42275688   180.09647128
 H      3   2   1     2.065872446859   120.06633696   180.15908958
 H      5   4   3     2.066405430445   118.42868219     0.51753821
 H      6   5   4     2.058845421882   118.38290422   180.62581547
 H      9   8   7     2.066317238122   119.54494839   177.96255732
 H     10   9   8     2.066685456552   119.82799625   179.76665429
 H     12  11  10     2.066768076289   118.42182229     0.66620816
 H     13  12  11     2.058845974241   118.33012632   179.94240104
 H     17   1   2     2.061591656433   117.02393609   180.28683080
 H     18   8   7     2.118319236005   118.31627854   347.47867820
 H     19  17   1     2.066661254059   122.28567643   359.96571931
 H     20  18   8     2.148725904145   124.28762513   357.41312842
 H     22  20  18     1.880651981431   107.81484202   177.31968857

---------------------
BASIS SET INFORMATION
---------------------
There are 4 groups of distinct atoms

 Group   1 Type C   : 7s4p1d contracted to 3s2p1d pattern {511/31/1}
 Group   2 Type O   : 7s4p1d contracted to 3s2p1d pattern {511/31/1}
 Group   3 Type N   : 7s4p1d contracted to 3s2p1d pattern {511/31/1}
 Group   4 Type H   : 4s1p contracted to 2s1p pattern {31/1}

Atom   0C    basis set group =>   1
Atom   1C    basis set group =>   1
Atom   2C    basis set group =>   1
Atom   3C    basis set group =>   1
Atom   4C    basis set group =>   1
Atom   5C    basis set group =>   1
Atom   6C    basis set group =>   1
Atom   7C    basis set group =>   1
Atom   8C    basis set group =>   1
Atom   9C    basis set group =>   1
Atom  10C    basis set group =>   1
Atom  11C    basis set group =>   1
Atom  12C    basis set group =>   1
Atom  13C    basis set group =>   1
Atom  14C    basis set group =>   1
Atom  15C    basis set group =>   1
Atom  16C    basis set group =>   1
Atom  17C    basis set group =>   1
Atom  18C    basis set group =>   1
Atom  19C    basis set group =>   1
Atom  20C    basis set group =>   1
Atom  21O    basis set group =>   2
Atom  22N    basis set group =>   3
Atom  23H    basis set group =>   4
Atom  24H    basis set group =>   4
Atom  25H    basis set group =>   4
Atom  26H    basis set group =>   4
Atom  27H    basis set group =>   4
Atom  28H    basis set group =>   4
Atom  29H    basis set group =>   4
Atom  30H    basis set group =>   4
Atom  31H    basis set group =>   4
Atom  32H    basis set group =>   4
Atom  33H    basis set group =>   4
Atom  34H    basis set group =>   4
Atom  35H    basis set group =>   4
---------------------------------
AUXILIARY/J BASIS SET INFORMATION
---------------------------------
There are 4 groups of distinct atoms

 Group   1 Type C   : 12s5p4d2f1g contracted to 6s4p3d1f1g pattern {711111/2111/211/2/1}
 Group   2 Type O   : 12s5p4d2f1g contracted to 6s4p3d1f1g pattern {711111/2111/211/2/1}
 Group   3 Type N   : 12s5p4d2f1g contracted to 6s4p3d1f1g pattern {711111/2111/211/2/1}
 Group   4 Type H   : 5s2p1d contracted to 3s1p1d pattern {311/2/1}

Atom   0C    basis set group =>   1
Atom   1C    basis set group =>   1
Atom   2C    basis set group =>   1
Atom   3C    basis set group =>   1
Atom   4C    basis set group =>   1
Atom   5C    basis set group =>   1
Atom   6C    basis set group =>   1
Atom   7C    basis set group =>   1
Atom   8C    basis set group =>   1
Atom   9C    basis set group =>   1
Atom  10C    basis set group =>   1
Atom  11C    basis set group =>   1
Atom  12C    basis set group =>   1
Atom  13C    basis set group =>   1
Atom  14C    basis set group =>   1
Atom  15C    basis set group =>   1
Atom  16C    basis set group =>   1
Atom  17C    basis set group =>   1
Atom  18C    basis set group =>   1
Atom  19C    basis set group =>   1
Atom  20C    basis set group =>   1
Atom  21O    basis set group =>   2
Atom  22N    basis set group =>   3
Atom  23H    basis set group =>   4
Atom  24H    basis set group =>   4
Atom  25H    basis set group =>   4
Atom  26H    basis set group =>   4
Atom  27H    basis set group =>   4
Atom  28H    basis set group =>   4
Atom  29H    basis set group =>   4
Atom  30H    basis set group =>   4
Atom  31H    basis set group =>   4
Atom  32H    basis set group =>   4
Atom  33H    basis set group =>   4
Atom  34H    basis set group =>   4
Atom  35H    basis set group =>   4


           ************************************************************
           *        Program running with 8 parallel MPI-processes     *
           *              working on a common directory               *
           ************************************************************
------------------------------------------------------------------------------
                           ORCA GTO INTEGRAL CALCULATION
                           -- RI-GTO INTEGRALS CHOSEN --
------------------------------------------------------------------------------
------------------------------------------------------------------------------
                   ___                                                        
                  /   \      - P O W E R E D   B Y -                         
                 /     \                                                     
                 |  |  |   _    _      __       _____    __    __             
                 |  |  |  | |  | |    /  \     |  _  \  |  |  /  |          
                  \  \/   | |  | |   /    \    | | | |  |  | /  /          
                 / \  \   | |__| |  /  /\  \   | |_| |  |  |/  /          
                |  |  |   |  __  | /  /__\  \  |    /   |      \           
                |  |  |   | |  | | |   __   |  |    \   |  |\   \          
                \     /   | |  | | |  |  |  |  | |\  \  |  | \   \       
                 \___/    |_|  |_| |__|  |__|  |_| \__\ |__|  \__/        
                                                                              
                      - O R C A' S   B I G   F R I E N D -                    
                                      &                                       
                       - I N T E G R A L  F E E D E R -                       
                                                                              
 v1 FN, 2020, v2 2021                                                         
------------------------------------------------------------------------------


Reading SHARK input file NC_OH_3.SHARKINP.tmp ... ok
----------------------
SHARK INTEGRAL PACKAGE
----------------------

Number of atoms                             ...     36
Number of basis functions                   ...    387
Number of shells                            ...    177
Maximum angular momentum                    ...      2
Integral batch strategy                     ... SHARK/LIBINT Hybrid
RI-J (if used) integral strategy            ... SPLIT-RIJ (Revised 2003 algorithm where possible)
Printlevel                                  ...      1
Contraction scheme used                     ... SEGMENTED contraction
Coulomb Range Separation                    ... NOT USED
Exchange Range Separation                   ... NOT USED
Finite Nucleus Model                        ... NOT USED
Auxiliary Coulomb fitting basis             ... AVAILABLE
   # of basis functions in Aux-J            ...   1270
   # of shells in Aux-J                     ...    410
   Maximum angular momentum in Aux-J        ...      4
Auxiliary J/K fitting basis                 ... NOT available
Auxiliary Correlation fitting basis         ... NOT available
Auxiliary 'external' fitting basis          ... NOT available
Integral threshold                          ...     1.000000e-12
Primitive cut-off                           ...     1.000000e-14
Primitive pair pre-selection threshold      ...     1.000000e-14

Calculating pre-screening integrals         ... done (  0.0 sec) Dimension = 177
Organizing shell pair data                  ... done (  1.0 sec)
Shell pair information
Total number of shell pairs                 ...     15753
Shell pairs after pre-screening             ...     11818
Total number of primitive shell pairs       ...     58649
Primitive shell pairs kept                  ...     28578
          la=0 lb=0:   3442 shell pairs
          la=1 lb=0:   4322 shell pairs
          la=1 lb=1:   1396 shell pairs
          la=2 lb=0:   1510 shell pairs
          la=2 lb=1:    964 shell pairs
          la=2 lb=2:    184 shell pairs

Calculating one electron integrals          ... done (  0.0 sec)
Calculating RI/J V-Matrix + Cholesky decomp.... done (  2.0 sec)
Calculating Nuclear repulsion               ... done (  0.0 sec) ENN=   1621.062371263024 Eh

SHARK setup successfully completed in   4.5 seconds

Maximum memory used throughout the entire GTOINT-calculation: 21.4 MB


           ************************************************************
           *        Program running with 8 parallel MPI-processes     *
           *              working on a common directory               *
           ************************************************************
-------------------------------------------------------------------------------
                                 ORCA SCF
-------------------------------------------------------------------------------

------------
SCF SETTINGS
------------
Hamiltonian:
 Density Functional     Method          .... DFT(GTOs)
 Exchange Functional    Exchange        .... B88
   X-Alpha parameter    XAlpha          ....  0.666667
   Becke's b parameter  XBeta           ....  0.004200
 Correlation Functional Correlation     .... LYP
 LDA part of GGA corr.  LDAOpt          .... VWN-5
 Gradients option       PostSCFGGA      .... off
 Hybrid DFT is turned on
   Fraction HF Exchange ScalHFX         ....  0.200000
   Scaling of DF-GGA-X  ScalDFX         ....  0.720000
   Scaling of DF-GGA-C  ScalDFC         ....  0.810000
   Scaling of DF-LDA-C  ScalLDAC        ....  1.000000
   Perturbative correction              ....  0.000000
   Density functional embedding theory  .... OFF
   NL short-range parameter             ....  4.800000
 RI-approximation to the Coulomb term is turned on
   Number of AuxJ basis functions       .... 1270
   RIJ-COSX (HFX calculated with COS-X)).... on


General Settings:
 Integral files         IntName         .... NC_OH_3
 Hartree-Fock type      HFTyp           .... RHF
 Total Charge           Charge          ....    0
 Multiplicity           Mult            ....    1
 Number of Electrons    NEL             ....  154
 Basis Dimension        Dim             ....  387
 Nuclear Repulsion      ENuc            ....   1621.0623712630 Eh

Convergence Acceleration:
 DIIS                   CNVDIIS         .... on
   Start iteration      DIISMaxIt       ....     0
   Startup error        DIISStart       ....  0.200000
   # of expansion vecs  DIISMaxEq       ....     5
   Bias factor          DIISBfac        ....   1.050
   Max. coefficient     DIISMaxC        ....  10.000
 Trust-Rad. Augm. Hess. CNVTRAH         .... auto
   Auto Start mean grad. ratio tolernc. ....  1.125000
   Auto Start start iteration           ....    20
   Auto Start num. interpolation iter.  ....    10
   Max. Number of Micro iterations      ....    16
   Max. Number of Macro iterations      .... Maxiter - #DIIS iter
   Number of Davidson start vectors     ....     2
   Converg. threshold I  (grad. norm)   ....   2.000e-06
   Converg. threshold II (energy diff.) ....   1.000e-09
   Grad. Scal. Fac. for Micro threshold ....   0.100
   Minimum threshold for Micro iter.    ....   0.010
   NR start threshold (gradient norm)   ....   0.001
   Initial trust radius                 ....   0.400
   Minimum AH scaling param. (alpha)    ....   1.000
   Maximum AH scaling param. (alpha)    .... 1000.000
   Orbital update algorithm             .... Taylor
   White noise on init. David. guess    .... on
   Maximum white noise                  ....   0.010
   Quad. conv. algorithm                .... NR
 SOSCF                  CNVSOSCF        .... on
   Start iteration      SOSCFMaxIt      ....   150
   Startup grad/error   SOSCFStart      ....  0.001000
 Level Shifting         CNVShift        .... on
   Level shift para.    LevelShift      ....    0.2500
   Turn off err/grad.   ShiftErr        ....    0.0000
 Zerner damping         CNVZerner       .... off
 Static damping         CNVDamp         .... on
   Fraction old density DampFac         ....    0.8500
   Max. Damping (<1)    DampMax         ....    0.9800
   Min. Damping (>=0)   DampMin         ....    0.0000
   Turn off err/grad.   DampErr         ....    0.0300
 Fernandez-Rico         CNVRico         .... off

SCF Procedure:
 Maximum # iterations   MaxIter         ....   125
 SCF integral mode      SCFMode         .... Direct
   Integral package                     .... SHARK and LIBINT hybrid scheme
 Reset frequency        DirectResetFreq ....    20
 Integral Threshold     Thresh          ....  1.000e-12 Eh
 Primitive CutOff       TCut            ....  1.000e-14 Eh

Convergence Tolerance:
 Convergence Check Mode ConvCheckMode   .... Total+1el-Energy
 Convergence forced     ConvForced      .... 0
 Energy Change          TolE            ....  1.000e-09 Eh
 1-El. energy change                    ....  1.000e-06 Eh
 Orbital Gradient       TolG            ....  2.000e-06
 Orbital Rotation angle TolX            ....  2.000e-06
 DIIS Error             TolErr          ....  1.000e-08


Diagonalization of the overlap matrix:
Smallest eigenvalue                        ... 1.996e-04
Time for diagonalization                   ...    0.022 sec
Threshold for overlap eigenvalues          ... 1.000e-08
Number of eigenvalues below threshold      ... 0
Time for construction of square roots      ...    0.018 sec
Total time needed                          ...    0.041 sec

Time for model grid setup =    0.460 sec

------------------------------
INITIAL GUESS: MODEL POTENTIAL
------------------------------
Loading Hartree-Fock densities                     ... done
Calculating cut-offs                               ... done
Initializing the effective Hamiltonian             ... done
Setting up the integral package (SHARK)            ... done
Starting the Coulomb interaction                   ... done (   0.2 sec)
Reading the grid                                   ... done
Mapping shells                                     ... done
Starting the XC term evaluation                    ... done (   0.1 sec)
  promolecular density results
     # of electrons  =    153.990038356
     EX              =   -126.524674376
     EC              =     -5.229527269
     EX+EC           =   -131.754201644
Transforming the Hamiltonian                       ... done (   0.0 sec)
Diagonalizing the Hamiltonian                      ... done (   0.0 sec)
Back transforming the eigenvectors                 ... done (   0.0 sec)
Now organizing SCF variables                       ... done
                      ------------------
                      INITIAL GUESS DONE (   0.8 sec)
                      ------------------
-------------------
DFT GRID GENERATION
-------------------

General Integration Accuracy     IntAcc      ... 4.959
Radial Grid Type                 RadialGrid  ... OptM3 with GC (2021)
Angular Grid (max. ang.)         AngularGrid ... 6 (Lebedev-590)
Angular grid pruning method      GridPruning ... 4 (adaptive)
Weight generation scheme         WeightScheme... Becke
Basis function cutoff            BFCut       ... 1.0000e-12
Integration weight cutoff        WCut        ... 1.0000e-14
Angular grids for H and He will be reduced by one unit
Partially contracted basis set               ... off
Rotationally invariant grid construction     ... off

Total number of grid points                  ...   436718
Total number of batches                      ...     6845
Average number of points per batch           ...       63
Average number of grid points per atom       ...    12131
Time for grid setup =    8.785 sec

--------------------
COSX GRID GENERATION
--------------------

GRIDX 1
-------
General Integration Accuracy     IntAcc      ... 4.020
Radial Grid Type                 RadialGrid  ... OptM3 with GC (2021)
Angular Grid (max. ang.)         AngularGrid ... 2 (Lebedev-110)
Angular grid pruning method      GridPruning ... 4 (adaptive)
Weight generation scheme         WeightScheme... Becke
Basis function cutoff            BFCut       ... 1.0000e-12
Integration weight cutoff        WCut        ... 1.0000e-14
Angular grids for H and He will be reduced by one unit
Partially contracted basis set               ... on
Rotationally invariant grid construction     ... off

Total number of grid points                  ...    50029
Total number of batches                      ...      801
Average number of points per batch           ...       62
Average number of grid points per atom       ...     1390
UseSFitting                                  ... on

GRIDX 2
-------
General Integration Accuracy     IntAcc      ... 4.338
Radial Grid Type                 RadialGrid  ... OptM3 with GC (2021)
Angular Grid (max. ang.)         AngularGrid ... 3 (Lebedev-194)
Angular grid pruning method      GridPruning ... 4 (adaptive)
Weight generation scheme         WeightScheme... Becke
Basis function cutoff            BFCut       ... 1.0000e-12
Integration weight cutoff        WCut        ... 1.0000e-14
Angular grids for H and He will be reduced by one unit
Partially contracted basis set               ... on
Rotationally invariant grid construction     ... off

Total number of grid points                  ...   109877
Total number of batches                      ...     1734
Average number of points per batch           ...       63
Average number of grid points per atom       ...     3052
UseSFitting                                  ... on

GRIDX 3
-------
General Integration Accuracy     IntAcc      ... 4.871
Radial Grid Type                 RadialGrid  ... OptM3 with GC (2021)
Angular Grid (max. ang.)         AngularGrid ... 4 (Lebedev-302)
Angular grid pruning method      GridPruning ... 4 (adaptive)
Weight generation scheme         WeightScheme... Becke
Basis function cutoff            BFCut       ... 1.0000e-12
Integration weight cutoff        WCut        ... 1.0000e-14
Angular grids for H and He will be reduced by one unit
Partially contracted basis set               ... on
Rotationally invariant grid construction     ... off

Total number of grid points                  ...   202800
Total number of batches                      ...     3186
Average number of points per batch           ...       63
Average number of grid points per atom       ...     5633
UseSFitting                                  ... on

Time for X-Grid setup             =    5.232 sec

--------------
SCF ITERATIONS
--------------
ITER       Energy         Delta-E        Max-DP      RMS-DP      [F,P]     Damp
               ***  Starting incremental Fock matrix formation  ***
  0   -936.3617417645   0.000000000000 0.04519498  0.00103956  0.2290260 0.8500
  1   -936.4703420307  -0.108600266110 0.03959354  0.00094011  0.1557710 0.8500
                               ***Turning on DIIS***
  2   -936.5423284377  -0.071986407021 0.02807429  0.00073688  0.1049729 0.8500
  3   -936.5890003896  -0.046671951884 0.01376775  0.00050386  0.0709911 0.8500
  4   -936.6237484269  -0.034748037296 0.01181009  0.00038270  0.0546473 0.8500
  5   -936.6505483955  -0.026799968615 0.01042124  0.00030989  0.0449434 0.8500
  6   -936.6722446779  -0.021696282438 0.00914223  0.00025902  0.0377195 0.8500
  7   -936.6901981119  -0.017953433955 0.00798986  0.00022024  0.0318413 0.8500
  8   -936.7052337974  -0.015035685564 0.04613867  0.00125437  0.0265752 0.0000
  9   -936.7857367771  -0.080502979704 0.00519266  0.00005964  0.0061111 0.0000
 10   -936.7857693876  -0.000032610445 0.00236830  0.00002351  0.0062447 0.0000
 11   -936.7858252580  -0.000055870388 0.00061510  0.00001034  0.0011995 0.0000
                      *** Initiating the SOSCF procedure ***
                           *** Shutting down DIIS ***
                      *** Re-Reading the Fockian *** 
                      *** Removing any level shift *** 
ITER      Energy       Delta-E        Grad      Rot      Max-DP    RMS-DP
 12   -936.78582992  -0.0000046572  0.000127  0.000127  0.000267  0.000004
               *** Restarting incremental Fock matrix formation ***
 13   -936.78581210   0.0000178193  0.000045  0.000306  0.000149  0.000004
 14   -936.78581216  -0.0000000624  0.000079  0.000255  0.000121  0.000003
 15   -936.78581224  -0.0000000846  0.000034  0.000208  0.000071  0.000002
 16   -936.78581227  -0.0000000271  0.000015  0.000062  0.000076  0.000001
 17   -936.78581228  -0.0000000070  0.000011  0.000062  0.000026  0.000001
 18   -936.78581228  -0.0000000056  0.000008  0.000020  0.000021  0.000000
 19   -936.78581228   0.0000000008  0.000008  0.000019  0.000012  0.000000
 20   -936.78581228  -0.0000000031  0.000001  0.000008  0.000005  0.000000
 21   -936.78581228  -0.0000000001  0.000002  0.000005  0.000003  0.000000
                  ***Gradient check signals convergence***
              ***Rediagonalizing the Fockian in SOSCF/NRSCF***

               *****************************************************
               *                     SUCCESS                       *
               *           SCF CONVERGED AFTER  22 CYCLES          *
               *****************************************************

Old exchange energy                            =    -25.595725943 Eh
New exchange energy                            =    -25.595716851 Eh
Exchange energy change after final integration =      0.000009093 Eh
Total energy after final integration           =   -936.785803192 Eh
Final COS-X integration done in                =    12.528 sec

----------------
TOTAL SCF ENERGY
----------------

Total Energy       :         -936.78580319 Eh          -25491.23765 eV

Components:
Nuclear Repulsion  :         1621.06237126 Eh           44111.34970 eV
Electronic Energy  :        -2557.84817446 Eh          -69602.58735 eV
One Electron Energy:        -4486.85715108 Eh         -122093.59020 eV
Two Electron Energy:         1929.00897662 Eh           52491.00284 eV
Max COSX asymmetry :            0.00000045 Eh               0.00001 eV

Virial components:
Potential Energy   :        -1863.76311277 Eh          -50715.57263 eV
Kinetic Energy     :          926.97730958 Eh           25224.33497 eV
Virial Ratio       :            2.01058116


DFT components:
N(Alpha)           :       76.999998989795 electrons
N(Beta)            :       76.999998989795 electrons
N(Total)           :      153.999997979590 electrons
E(X)               :     -101.719603455368 Eh       
E(C)               :       -6.160148730343 Eh       
E(XC)              :     -107.879752185710 Eh       
DFET-embed. en.    :        0.000000000000 Eh       

---------------
SCF CONVERGENCE
---------------

  Last Energy change         ...    3.8767e-11  Tolerance :   1.0000e-09
  Last MAX-Density change    ...    3.1086e-15  Tolerance :   1.0000e-08
  Last RMS-Density change    ...    3.6585e-17  Tolerance :   1.0000e-09
  Last Orbital Gradient      ...    3.5186e-07  Tolerance :   2.0000e-06
  Last Orbital Rotation      ...    1.4438e-06  Tolerance :   2.0000e-06

             **** THE GBW FILE WAS UPDATED (NC_OH_3.gbw) ****
             **** DENSITY NC_OH_3.scfp WAS UPDATED ****
             **** ENERGY FILE WAS UPDATED (NC_OH_3.en.tmp) ****
             **** THE GBW FILE WAS UPDATED (NC_OH_3.gbw) ****
             **** DENSITY NC_OH_3.scfp WAS UPDATED ****
----------------
ORBITAL ENERGIES
----------------

  NO   OCC          E(Eh)            E(eV) 
   0   2.0000     -19.185383      -522.0608 
   1   2.0000     -14.313519      -389.4907 
   2   2.0000     -10.266827      -279.3746 
   3   2.0000     -10.223281      -278.1896 
   4   2.0000     -10.221055      -278.1291 
   5   2.0000     -10.215450      -277.9765 
   6   2.0000     -10.213915      -277.9348 
   7   2.0000     -10.213832      -277.9325 
   8   2.0000     -10.211332      -277.8645 
   9   2.0000     -10.207904      -277.7712 
  10   2.0000     -10.207425      -277.7581 
  11   2.0000     -10.206995      -277.7465 
  12   2.0000     -10.206130      -277.7229 
  13   2.0000     -10.202522      -277.6247 
  14   2.0000     -10.201693      -277.6022 
  15   2.0000     -10.200662      -277.5741 
  16   2.0000     -10.200470      -277.5689 
  17   2.0000     -10.200079      -277.5583 
  18   2.0000     -10.199235      -277.5353 
  19   2.0000     -10.198534      -277.5162 
  20   2.0000     -10.198501      -277.5153 
  21   2.0000     -10.198347      -277.5111 
  22   2.0000     -10.195207      -277.4257 
  23   2.0000      -1.060274       -28.8515 
  24   2.0000      -0.893687       -24.3185 
  25   2.0000      -0.883190       -24.0328 
  26   2.0000      -0.858663       -23.3654 
  27   2.0000      -0.833449       -22.6793 
  28   2.0000      -0.819736       -22.3061 
  29   2.0000      -0.790917       -21.5219 
  30   2.0000      -0.779982       -21.2244 
  31   2.0000      -0.752247       -20.4697 
  32   2.0000      -0.743717       -20.2376 
  33   2.0000      -0.730187       -19.8694 
  34   2.0000      -0.708791       -19.2872 
  35   2.0000      -0.657710       -17.8972 
  36   2.0000      -0.639092       -17.3906 
  37   2.0000      -0.635019       -17.2798 
  38   2.0000      -0.619875       -16.8676 
  39   2.0000      -0.599434       -16.3114 
  40   2.0000      -0.579263       -15.7626 
  41   2.0000      -0.561722       -15.2852 
  42   2.0000      -0.546014       -14.8578 
  43   2.0000      -0.533936       -14.5291 
  44   2.0000      -0.526310       -14.3216 
  45   2.0000      -0.511598       -13.9213 
  46   2.0000      -0.504514       -13.7285 
  47   2.0000      -0.496647       -13.5145 
  48   2.0000      -0.472953       -12.8697 
  49   2.0000      -0.458137       -12.4665 
  50   2.0000      -0.451409       -12.2835 
  51   2.0000      -0.449327       -12.2268 
  52   2.0000      -0.432516       -11.7694 
  53   2.0000      -0.427638       -11.6366 
  54   2.0000      -0.423092       -11.5129 
  55   2.0000      -0.417639       -11.3645 
  56   2.0000      -0.409714       -11.1489 
  57   2.0000      -0.405636       -11.0379 
  58   2.0000      -0.401344       -10.9211 
  59   2.0000      -0.397946       -10.8287 
  60   2.0000      -0.385640       -10.4938 
  61   2.0000      -0.384400       -10.4601 
  62   2.0000      -0.376926       -10.2567 
  63   2.0000      -0.365345        -9.9416 
  64   2.0000      -0.359645        -9.7864 
  65   2.0000      -0.353433        -9.6174 
  66   2.0000      -0.346997        -9.4423 
  67   2.0000      -0.341371        -9.2892 
  68   2.0000      -0.328766        -8.9462 
  69   2.0000      -0.326064        -8.8727 
  70   2.0000      -0.321673        -8.7532 
  71   2.0000      -0.297109        -8.0847 
  72   2.0000      -0.280404        -7.6302 
  73   2.0000      -0.266273        -7.2457 
  74   2.0000      -0.243423        -6.6239 
  75   2.0000      -0.236300        -6.4301 
  76   2.0000      -0.194623        -5.2960 
  77   0.0000      -0.089711        -2.4411 
  78   0.0000      -0.049644        -1.3509 
  79   0.0000      -0.041054        -1.1171 
  80   0.0000      -0.017324        -0.4714 
  81   0.0000       0.004998         0.1360 
  82   0.0000       0.016600         0.4517 
  83   0.0000       0.022230         0.6049 
  84   0.0000       0.037802         1.0286 
  85   0.0000       0.057041         1.5522 
  86   0.0000       0.063690         1.7331 
  87   0.0000       0.065858         1.7921 
  88   0.0000       0.068392         1.8610 
  89   0.0000       0.079996         2.1768 
  90   0.0000       0.091293         2.4842 
  91   0.0000       0.098435         2.6785 
  92   0.0000       0.100912         2.7459 
  93   0.0000       0.118546         3.2258 
  94   0.0000       0.121198         3.2980 
  95   0.0000       0.123337         3.3562 
  96   0.0000       0.153915         4.1883 
  97   0.0000       0.157942         4.2978 
  98   0.0000       0.167612         4.5609 
  99   0.0000       0.183388         4.9902 
 100   0.0000       0.191829         5.2199 
 101   0.0000       0.205237         5.5848 
 102   0.0000       0.219461         5.9718 
 103   0.0000       0.226917         6.1747 
 104   0.0000       0.229137         6.2351 
 105   0.0000       0.237489         6.4624 
 106   0.0000       0.239282         6.5112 
 107   0.0000       0.247160         6.7256 
 108   0.0000       0.255137         6.9426 
 109   0.0000       0.267170         7.2701 
 110   0.0000       0.270298         7.3552 
 111   0.0000       0.279467         7.6047 
 112   0.0000       0.292461         7.9583 
 113   0.0000       0.295889         8.0515 
 114   0.0000       0.308608         8.3976 
 115   0.0000       0.313642         8.5346 
 116   0.0000       0.317861         8.6494 
 117   0.0000       0.322580         8.7778 
 118   0.0000       0.330942         9.0054 
 119   0.0000       0.335060         9.1174 
 120   0.0000       0.342495         9.3198 
 121   0.0000       0.350552         9.5390 
 122   0.0000       0.357615         9.7312 
 123   0.0000       0.363831         9.9003 
 124   0.0000       0.369940        10.0666 
 125   0.0000       0.384580        10.4650 
 126   0.0000       0.389151        10.5894 
 127   0.0000       0.400526        10.8989 
 128   0.0000       0.407387        11.0856 
 129   0.0000       0.418912        11.3992 
 130   0.0000       0.430666        11.7190 
 131   0.0000       0.434350        11.8193 
 132   0.0000       0.438962        11.9448 
 133   0.0000       0.447612        12.1801 
 134   0.0000       0.451464        12.2849 
 135   0.0000       0.454053        12.3554 
 136   0.0000       0.464331        12.6351 
 137   0.0000       0.468816        12.7571 
 138   0.0000       0.471724        12.8363 
 139   0.0000       0.473022        12.8716 
 140   0.0000       0.476868        12.9762 
 141   0.0000       0.481544        13.1035 
 142   0.0000       0.492739        13.4081 
 143   0.0000       0.495285        13.4774 
 144   0.0000       0.500760        13.6264 
 145   0.0000       0.502838        13.6829 
 146   0.0000       0.512030        13.9331 
 147   0.0000       0.515341        14.0231 
 148   0.0000       0.525767        14.3069 
 149   0.0000       0.544098        14.8057 
 150   0.0000       0.544698        14.8220 
 151   0.0000       0.546050        14.8588 
 152   0.0000       0.554379        15.0854 
 153   0.0000       0.562639        15.3102 
 154   0.0000       0.566140        15.4054 
 155   0.0000       0.576394        15.6845 
 156   0.0000       0.590432        16.0665 
 157   0.0000       0.593831        16.1590 
 158   0.0000       0.600338        16.3360 
 159   0.0000       0.608032        16.5454 
 160   0.0000       0.619455        16.8562 
 161   0.0000       0.621498        16.9118 
 162   0.0000       0.633990        17.2518 
 163   0.0000       0.635941        17.3048 
 164   0.0000       0.639872        17.4118 
 165   0.0000       0.644726        17.5439 
 166   0.0000       0.648033        17.6339 
 167   0.0000       0.650442        17.6994 
 168   0.0000       0.657551        17.8929 
 169   0.0000       0.661991        18.0137 
 170   0.0000       0.667284        18.1577 
 171   0.0000       0.670404        18.2426 
 172   0.0000       0.673553        18.3283 
 173   0.0000       0.685424        18.6513 
 174   0.0000       0.688115        18.7246 
 175   0.0000       0.698891        19.0178 
 176   0.0000       0.707303        19.2467 
 177   0.0000       0.712146        19.3785 
 178   0.0000       0.721244        19.6261 
 179   0.0000       0.727262        19.7898 
 180   0.0000       0.731244        19.8982 
 181   0.0000       0.735202        20.0059 
 182   0.0000       0.746348        20.3092 
 183   0.0000       0.753721        20.5098 
 184   0.0000       0.756598        20.5881 
 185   0.0000       0.761703        20.7270 
 186   0.0000       0.776688        21.1347 
 187   0.0000       0.782695        21.2982 
 188   0.0000       0.787273        21.4228 
 189   0.0000       0.796258        21.6673 
 190   0.0000       0.801349        21.8058 
 191   0.0000       0.819093        22.2887 
 192   0.0000       0.836144        22.7526 
 193   0.0000       0.845890        23.0178 
 194   0.0000       0.852768        23.2050 
 195   0.0000       0.856239        23.2995 
 196   0.0000       0.862420        23.4676 
 197   0.0000       0.880456        23.9584 
 198   0.0000       0.892706        24.2918 
 199   0.0000       0.896763        24.4022 
 200   0.0000       0.918174        24.9848 
 201   0.0000       0.937767        25.5179 
 202   0.0000       0.948975        25.8229 
 203   0.0000       0.959846        26.1187 
 204   0.0000       0.983614        26.7655 
 205   0.0000       1.006158        27.3789 
 206   0.0000       1.024560        27.8797 
 207   0.0000       1.029626        28.0175 
 208   0.0000       1.047244        28.4970 
 209   0.0000       1.084224        29.5032 
 210   0.0000       1.099286        29.9131 
 211   0.0000       1.104841        30.0642 
 212   0.0000       1.119048        30.4509 
 213   0.0000       1.124104        30.5884 
 214   0.0000       1.137831        30.9619 
 215   0.0000       1.158647        31.5284 
 216   0.0000       1.172840        31.9146 
 217   0.0000       1.177041        32.0289 
 218   0.0000       1.190192        32.3868 
 219   0.0000       1.201106        32.6838 
 220   0.0000       1.209917        32.9235 
 221   0.0000       1.214930        33.0599 
 222   0.0000       1.220329        33.2068 
 223   0.0000       1.226281        33.3688 
 224   0.0000       1.233152        33.5558 
 225   0.0000       1.240277        33.7497 
 226   0.0000       1.242131        33.8001 
 227   0.0000       1.246035        33.9063 
 228   0.0000       1.251967        34.0678 
 229   0.0000       1.264190        34.4004 
 230   0.0000       1.271651        34.6034 
 231   0.0000       1.276909        34.7465 
 232   0.0000       1.286578        35.0096 
 233   0.0000       1.291774        35.1510 
 234   0.0000       1.315315        35.7915 
 235   0.0000       1.325322        36.0638 
 236   0.0000       1.331516        36.2324 
 237   0.0000       1.342844        36.5406 
 238   0.0000       1.345609        36.6159 
 239   0.0000       1.349994        36.7352 
 240   0.0000       1.356156        36.9029 
 241   0.0000       1.372462        37.3466 
 242   0.0000       1.379915        37.5494 
 243   0.0000       1.383545        37.6482 
 244   0.0000       1.386827        37.7375 
 245   0.0000       1.405684        38.2506 
 246   0.0000       1.474905        40.1342 
 247   0.0000       1.494767        40.6747 
 248   0.0000       1.503713        40.9181 
 249   0.0000       1.508435        41.0466 
 250   0.0000       1.517180        41.2846 
 251   0.0000       1.609553        43.7982 
 252   0.0000       1.618909        44.0528 
 253   0.0000       1.621721        44.1293 
 254   0.0000       1.625935        44.2439 
 255   0.0000       1.645008        44.7629 
 256   0.0000       1.650842        44.9217 
 257   0.0000       1.652653        44.9710 
 258   0.0000       1.658899        45.1409 
 259   0.0000       1.672113        45.5005 
 260   0.0000       1.676404        45.6173 
 261   0.0000       1.677517        45.6476 
 262   0.0000       1.689490        45.9734 
 263   0.0000       1.695013        46.1237 
 264   0.0000       1.703855        46.3642 
 265   0.0000       1.717348        46.7314 
 266   0.0000       1.720035        46.8045 
 267   0.0000       1.731246        47.1096 
 268   0.0000       1.734362        47.1944 
 269   0.0000       1.741444        47.3871 
 270   0.0000       1.746908        47.5358 
 271   0.0000       1.754994        47.7558 
 272   0.0000       1.758996        47.8647 
 273   0.0000       1.762754        47.9670 
 274   0.0000       1.764771        48.0219 
 275   0.0000       1.770173        48.1689 
 276   0.0000       1.777245        48.3613 
 277   0.0000       1.784062        48.5468 
 278   0.0000       1.797316        48.9075 
 279   0.0000       1.803768        49.0830 
 280   0.0000       1.816190        49.4211 
 281   0.0000       1.835203        49.9384 
 282   0.0000       1.840105        50.0718 
 283   0.0000       1.856943        50.5300 
 284   0.0000       1.873638        50.9843 
 285   0.0000       1.898346        51.6566 
 286   0.0000       1.899384        51.6849 
 287   0.0000       1.909154        51.9507 
 288   0.0000       1.923939        52.3531 
 289   0.0000       1.929991        52.5177 
 290   0.0000       1.940121        52.7934 
 291   0.0000       1.948587        53.0237 
 292   0.0000       1.965142        53.4742 
 293   0.0000       1.974112        53.7183 
 294   0.0000       1.990701        54.1697 
 295   0.0000       1.995250        54.2935 
 296   0.0000       2.001977        54.4766 
 297   0.0000       2.026055        55.1317 
 298   0.0000       2.032287        55.3013 
 299   0.0000       2.042984        55.5924 
 300   0.0000       2.047313        55.7102 
 301   0.0000       2.055966        55.9457 
 302   0.0000       2.064207        56.1699 
 303   0.0000       2.079466        56.5852 
 304   0.0000       2.084872        56.7323 
 305   0.0000       2.092379        56.9365 
 306   0.0000       2.097213        57.0681 
 307   0.0000       2.121963        57.7416 
 308   0.0000       2.133286        58.0497 
 309   0.0000       2.141592        58.2757 
 310   0.0000       2.142400        58.2977 
 311   0.0000       2.146922        58.4207 
 312   0.0000       2.168613        59.0110 
 313   0.0000       2.185598        59.4731 
 314   0.0000       2.187386        59.5218 
 315   0.0000       2.206145        60.0322 
 316   0.0000       2.213385        60.2293 
 317   0.0000       2.220140        60.4131 
 318   0.0000       2.235191        60.8226 
 319   0.0000       2.243510        61.0490 
 320   0.0000       2.252805        61.3019 
 321   0.0000       2.255570        61.3772 
 322   0.0000       2.260634        61.5150 
 323   0.0000       2.267721        61.7078 
 324   0.0000       2.286161        62.2096 
 325   0.0000       2.293935        62.4212 
 326   0.0000       2.300144        62.5901 
 327   0.0000       2.304518        62.7091 
 328   0.0000       2.306229        62.7557 
 329   0.0000       2.322571        63.2004 
 330   0.0000       2.355326        64.0917 
 331   0.0000       2.366315        64.3907 
 332   0.0000       2.368753        64.4571 
 333   0.0000       2.393826        65.1393 
 334   0.0000       2.410742        65.5996 
 335   0.0000       2.422510        65.9198 
 336   0.0000       2.461122        66.9705 
 337   0.0000       2.465465        67.0887 
 338   0.0000       2.493317        67.8466 
 339   0.0000       2.508587        68.2621 
 340   0.0000       2.517422        68.5025 
 341   0.0000       2.523426        68.6659 
 342   0.0000       2.550780        69.4103 
 343   0.0000       2.566453        69.8367 
 344   0.0000       2.582017        70.2603 
 345   0.0000       2.592003        70.5320 
 346   0.0000       2.599286        70.7302 
 347   0.0000       2.628856        71.5348 
 348   0.0000       2.646298        72.0094 
 349   0.0000       2.659021        72.3556 
 350   0.0000       2.677936        72.8703 
 351   0.0000       2.679981        72.9260 
 352   0.0000       2.689596        73.1876 
 353   0.0000       2.696527        73.3762 
 354   0.0000       2.723189        74.1017 
 355   0.0000       2.746193        74.7277 
 356   0.0000       2.761769        75.1516 
 357   0.0000       2.768158        75.3254 
 358   0.0000       2.772943        75.4556 
 359   0.0000       2.806528        76.3695 
 360   0.0000       2.828311        76.9623 
 361   0.0000       2.853904        77.6587 
 362   0.0000       2.864033        77.9343 
 363   0.0000       2.871655        78.1417 
 364   0.0000       2.884334        78.4867 
 365   0.0000       2.908916        79.1556 
 366   0.0000       2.938101        79.9498 
 367   0.0000       2.944740        80.1305 
 368   0.0000       2.964173        80.6592 
 369   0.0000       2.965988        80.7086 
 370   0.0000       2.992834        81.4391 
 371   0.0000       3.002217        81.6945 
 372   0.0000       3.013226        81.9941 
 373   0.0000       3.030428        82.4621 
 374   0.0000       3.097938        84.2992 
 375   0.0000       3.140661        85.4617 
 376   0.0000       3.184938        86.6666 
 377   0.0000       3.244504        88.2874 
 378   0.0000       3.260190        88.7143 
 379   0.0000       3.278473        89.2118 
 380   0.0000       3.353336        91.2489 
 381   0.0000       3.382375        92.0391 
 382   0.0000       3.462556        94.2209 
 383   0.0000       3.532285        96.1184 
 384   0.0000       3.579711        97.4089 
 385   0.0000       3.633967        98.8853 
 386   0.0000       3.739227       101.7495 

                    ********************************
                    * MULLIKEN POPULATION ANALYSIS *
                    ********************************

-----------------------
MULLIKEN ATOMIC CHARGES
-----------------------
   0 C :    0.060721
   1 C :   -0.022770
   2 C :   -0.030452
   3 C :    0.070775
   4 C :   -0.011687
   5 C :   -0.030556
   6 C :    0.055576
   7 C :    0.091625
   8 C :   -0.042524
   9 C :   -0.026318
  10 C :    0.061576
  11 C :   -0.006402
  12 C :   -0.043582
  13 C :    0.083804
  14 C :    0.055657
  15 C :    0.066018
  16 C :    0.023412
  17 C :   -0.044030
  18 C :   -0.123164
  19 C :    0.061885
  20 C :   -0.099335
  21 O :   -0.201933
  22 N :    0.034040
  23 H :   -0.026704
  24 H :   -0.030064
  25 H :   -0.030998
  26 H :   -0.030336
  27 H :   -0.038775
  28 H :   -0.031560
  29 H :   -0.029766
  30 H :   -0.030270
  31 H :    0.003040
  32 H :    0.008987
  33 H :    0.034780
  34 H :    0.020440
  35 H :    0.198892
Sum of atomic charges:   -0.0000000

--------------------------------
MULLIKEN REDUCED ORBITAL CHARGES
--------------------------------
  0 C s       :     3.107730  s :     3.107730
      pz      :     1.016565  p :     2.791027
      px      :     0.832574
      py      :     0.941887
      dz2     :     0.003167  d :     0.040522
      dxz     :     0.005663
      dyz     :     0.005918
      dx2y2   :     0.012942
      dxy     :     0.012831
  1 C s       :     3.224667  s :     3.224667
      pz      :     0.973290  p :     2.763108
      px      :     0.970999
      py      :     0.818820
      dz2     :     0.002609  d :     0.034995
      dxz     :     0.007147
      dyz     :     0.002268
      dx2y2   :     0.012794
      dxy     :     0.010176
  2 C s       :     3.244817  s :     3.244817
      pz      :     0.997961  p :     2.751008
      px      :     0.812727
      py      :     0.940320
      dz2     :     0.002631  d :     0.034626
      dxz     :     0.003642
      dyz     :     0.005126
      dx2y2   :     0.011586
      dxy     :     0.011641
  3 C s       :     3.114025  s :     3.114025
      pz      :     0.956693  p :     2.772184
      px      :     0.961764
      py      :     0.853727
      dz2     :     0.003234  d :     0.043016
      dxz     :     0.005958
      dyz     :     0.006941
      dx2y2   :     0.013184
      dxy     :     0.013699
  4 C s       :     3.229311  s :     3.229311
      pz      :     0.996216  p :     2.747659
      px      :     0.841752
      py      :     0.909692
      dz2     :     0.002620  d :     0.034717
      dxz     :     0.002709
      dyz     :     0.006139
      dx2y2   :     0.010436
      dxy     :     0.012812
  5 C s       :     3.234800  s :     3.234800
      pz      :     0.974003  p :     2.760816
      px      :     0.874298
      py      :     0.912515
      dz2     :     0.002591  d :     0.034941
      dxz     :     0.002926
      dyz     :     0.006425
      dx2y2   :     0.010558
      dxy     :     0.012440
  6 C s       :     3.148539  s :     3.148539
[...]
     90      -0.016049   0.107006   0.398118  -0.005318   0.736275   0.000009
     91       0.008522  -0.059667  -0.222277   0.003063  -0.419882  -0.000041
     92      -0.000880   0.006607   0.024600  -0.000353   0.045924   0.000004
     93       0.009203  -0.196662  -0.702240  -0.005007   0.424880   0.000066
     94       0.005574  -0.115937  -0.423102  -0.003001   0.257899   0.000061
     95      -0.000102   0.002031   0.007797   0.000054  -0.004781  -0.000000
     96      -0.042725  -0.002945   0.001437  -0.171594  -0.001641  -0.000993
     97      -0.018945  -0.001453   0.000731  -0.086248  -0.000855  -0.001251
     98       0.018841   0.001309  -0.000668   0.076362   0.000718   0.000057
     99       0.004028   0.121247  -0.136939  -0.000449   0.042443   0.000037
    100       0.002936   0.086914  -0.100178  -0.000307   0.032236   0.000049
    101      -0.000083  -0.002288   0.002733   0.000007  -0.000932  -0.000001
    102       0.060823  -0.000349   0.000256  -0.006645  -0.000160  -0.002622
    103       0.036612  -0.000221   0.000147  -0.004337  -0.000108  -0.008942
    104      -0.035386   0.000224  -0.000145   0.004706   0.000100   0.005421
    105      -0.000914  -0.000043   0.000001  -0.000420   0.000027  -0.083784
    106      -0.000373  -0.000113  -0.000013   0.000452   0.000090  -0.854914
    107       0.000504   0.000079   0.000008  -0.000208  -0.000069   0.507963


-----------
IR SPECTRUM
-----------

 Mode   freq       eps      Int      T**2         TX        TY        TZ
       cm**-1   L/(mol*cm) km/mol    a.u.
----------------------------------------------------------------------------
  7:     25.66   0.000062    0.31  0.000755  ( 0.006385 -0.016235  0.021230)
  8:     57.42   0.001192    6.02  0.006478  (-0.004368  0.038332  0.070637)
  9:     70.10   0.000236    1.19  0.001052  ( 0.014100  0.028505 -0.006348)
 10:     96.30   0.001811    9.15  0.005868  ( 0.027781  0.059173  0.039935)
 11:     99.60   0.000168    0.85  0.000528  (-0.003679  0.022154 -0.004831)
 12:    120.47   0.001089    5.51  0.002822  ( 0.013745 -0.033284 -0.039055)
 13:    147.24   0.001077    5.44  0.002283  (-0.003150 -0.029165 -0.037717)
 14:    200.81   0.001054    5.32  0.001637  ( 0.011901  0.036858  0.011717)
 15:    219.87   0.000292    1.48  0.000415  (-0.007652 -0.010262  0.015834)
 16:    221.08   0.001416    7.16  0.001999  ( 0.004304  0.007938  0.043784)
 17:    255.63   0.000185    0.93  0.000225  ( 0.008023  0.012681 -0.000231)
 18:    265.98   0.000130    0.65  0.000152  ( 0.001632  0.009985  0.007043)
 19:    289.66   0.002607   13.18  0.002809  (-0.012737 -0.027954 -0.043191)
 20:    313.67   0.001017    5.14  0.001012  ( 0.018713 -0.024719 -0.007130)
 21:    335.70   0.013179   66.60  0.012252  ( 0.033960  0.050950  0.092209)
 22:    355.31   0.000903    4.56  0.000793  (-0.009665  0.021651  0.015197)
 23:    378.84   0.003622   18.30  0.002983  (-0.011333 -0.022394 -0.048513)
 24:    420.18   0.001616    8.17  0.001200  (-0.019447  0.028647 -0.001092)
 25:    443.43   0.001472    7.44  0.001036  ( 0.021637 -0.022720  0.007185)
 26:    452.19   0.000193    0.97  0.000133  ( 0.009947 -0.004646  0.003521)
 27:    493.26   0.000583    2.95  0.000369  ( 0.000535  0.002393 -0.019048)
 28:    509.94   0.000552    2.79  0.000338  ( 0.009122 -0.015963  0.000276)
 29:    515.78   0.000227    1.15  0.000137  ( 0.006684  0.009371  0.002191)
 30:    527.45   0.000101    0.51  0.000060  ( 0.002635 -0.005794  0.004407)
 31:    532.80   0.001651    8.34  0.000967  ( 0.008271 -0.029784  0.003405)
 32:    562.17   0.000404    2.04  0.000225  ( 0.008495 -0.012016  0.002824)
 33:    565.97   0.000006    0.03  0.000003  (-0.000834  0.001540 -0.000480)
 34:    582.01   0.000194    0.98  0.000104  ( 0.004258 -0.000187 -0.009267)
 35:    620.79   0.003133   15.83  0.001575  (-0.017520  0.035543 -0.002123)
 36:    632.30   0.000585    2.96  0.000289  (-0.008992  0.014422 -0.000113)
 37:    678.14   0.000138    0.70  0.000063  (-0.005236  0.005654  0.001997)
 38:    702.61   0.000135    0.68  0.000060  (-0.004921  0.005971  0.000398)
 39:    719.09   0.000952    4.81  0.000413  ( 0.001341 -0.001599 -0.020222)
 40:    755.04   0.002723   13.76  0.001125  (-0.004776  0.006322  0.032596)
 41:    765.10   0.001046    5.28  0.000427  (-0.010906  0.013118 -0.011641)
 42:    783.32   0.000200    1.01  0.000080  ( 0.006459 -0.005553  0.002660)
 43:    815.60   0.008561   43.26  0.003276  ( 0.027491 -0.050012  0.004311)
 44:    817.39   0.001137    5.75  0.000434  (-0.008328  0.017847  0.006795)
 45:    832.40   0.002281   11.53  0.000855  ( 0.001767 -0.007938  0.028088)
 46:    852.31   0.000508    2.57  0.000186  (-0.007688  0.001657 -0.011136)
 47:    859.71   0.001532    7.74  0.000556  (-0.015043  0.018024  0.002196)
 48:    876.89   0.005999   30.32  0.002135  ( 0.007518 -0.006171  0.045169)
 49:    885.35   0.001159    5.86  0.000408  ( 0.013807 -0.013546 -0.005855)
 50:    890.26   0.005511   27.85  0.001932  ( 0.004297 -0.004679 -0.043492)
 51:    942.08   0.000707    3.57  0.000234  ( 0.003008 -0.002916  0.014718)
 52:    948.02   0.006935   35.05  0.002283  (-0.019628  0.001832 -0.043523)
 53:    985.22   0.003050   15.41  0.000966  (-0.001326  0.001966 -0.030990)
 54:    986.16   0.001521    7.68  0.000481  (-0.007554  0.018015  0.009977)
 55:    993.68   0.000059    0.30  0.000019  (-0.003509 -0.002499 -0.000058)
 56:    999.07   0.001138    5.75  0.000355  (-0.011704  0.014762  0.000698)
 57:   1001.99   0.001349    6.82  0.000420  ( 0.002033 -0.002475  0.020247)
 58:   1012.74   0.000040    0.20  0.000012  (-0.000245 -0.001745 -0.003026)
 59:   1016.65   0.000022    0.11  0.000007  (-0.001623  0.002054 -0.000063)
 60:   1040.70   0.000076    0.39  0.000023  (-0.004318 -0.002020  0.000399)
 61:   1117.45   0.001711    8.65  0.000478  ( 0.007544 -0.020333  0.002738)
 62:   1130.79   0.000125    0.63  0.000034  ( 0.004912 -0.003212 -0.000011)
 63:   1165.05   0.001530    7.73  0.000410  ( 0.001816  0.018755 -0.007408)
 64:   1182.39   0.000016    0.08  0.000004  (-0.001209  0.000704  0.001545)
 65:   1188.69   0.002518   12.73  0.000661  (-0.019906  0.016268 -0.000501)
 66:   1198.46   0.006403   32.36  0.001667  (-0.037576  0.015571 -0.003565)
 67:   1209.21   0.013882   70.15  0.003582  ( 0.049523 -0.033180  0.005391)
 68:   1227.69   0.073896  373.44  0.018784  ( 0.078886 -0.111139  0.014449)
 69:   1249.81   0.036572  184.82  0.009132  (-0.050791  0.080391 -0.009438)
 70:   1265.07   0.011404   57.63  0.002813  ( 0.025878 -0.046158  0.003599)
 71:   1269.41   0.001019    5.15  0.000251  (-0.001325 -0.015773 -0.000249)
 72:   1278.05   0.002759   13.94  0.000674  ( 0.018716 -0.017558  0.003879)
 73:   1283.60   0.015591   78.79  0.003790  ( 0.046667 -0.039810  0.005263)
 74:   1331.07   0.006103   30.84  0.001431  ( 0.018961 -0.032424  0.004480)
 75:   1335.06   0.005223   26.40  0.001221  ( 0.023133 -0.026169  0.001009)
 76:   1343.31   0.001265    6.40  0.000294  (-0.016735 -0.000640  0.003678)
 77:   1372.57   0.000035    0.18  0.000008  (-0.000909  0.002683 -0.000117)
 78:   1378.58   0.014229   71.91  0.003221  ( 0.044674 -0.034979  0.001287)
 79:   1406.66   0.000605    3.06  0.000134  ( 0.002844 -0.011215  0.000551)
 80:   1410.63   0.001609    8.13  0.000356  (-0.012827  0.013798  0.000991)
 81:   1424.86   0.001899    9.60  0.000416  ( 0.001441 -0.020190  0.002478)
 82:   1441.87   0.000898    4.54  0.000194  ( 0.008129 -0.011244  0.001368)
 83:   1467.45   0.001208    6.10  0.000257  ( 0.012995 -0.009380  0.000022)
 84:   1504.13   0.000498    2.52  0.000103  (-0.007638 -0.006702  0.000099)
 85:   1536.40   0.000723    3.65  0.000147  (-0.011963  0.001778 -0.000760)
 86:   1546.64   0.003656   18.47  0.000738  (-0.010783  0.024899 -0.001162)
 87:   1575.02   0.003746   18.93  0.000742  (-0.018179  0.020073 -0.002978)
 88:   1622.15   0.001318    6.66  0.000254  (-0.003589  0.015406 -0.001836)
 89:   1637.95   0.050717  256.30  0.009663  ( 0.054292 -0.081440  0.009092)
 90:   1656.62   0.009125   46.11  0.001719  (-0.003814  0.041252 -0.001630)
 91:   1663.85   0.019414   98.11  0.003641  (-0.034607  0.049181 -0.004986)
 92:   1675.59   0.000462    2.34  0.000086  (-0.002312 -0.008815  0.001738)
 93:   1734.54   0.076389  386.04  0.013743  (-0.059074  0.099369 -0.019473)
 94:   2336.80   0.028015  141.57  0.003741  ( 0.038406 -0.047424  0.004136)
 95:   3147.87   0.002178   11.01  0.000216  ( 0.013637  0.000110 -0.005474)
 96:   3171.16   0.000243    1.23  0.000024  ( 0.003745 -0.003108  0.000507)
 97:   3173.99   0.000135    0.68  0.000013  ( 0.002316  0.002812 -0.000155)
 98:   3174.56   0.002319   11.72  0.000228  (-0.015080  0.000097 -0.000732)
 99:   3175.78   0.003849   19.45  0.000378  ( 0.017863 -0.007630  0.000966)
100:   3179.09   0.000722    3.65  0.000071  (-0.007372 -0.004068  0.000095)
101:   3182.79   0.001670    8.44  0.000164  ( 0.006625 -0.010942  0.000323)
102:   3191.68   0.004164   21.04  0.000407  (-0.005474 -0.019411  0.000606)
103:   3199.76   0.002313   11.69  0.000226  (-0.005907 -0.013789  0.000720)
104:   3200.74   0.000248    1.25  0.000024  ( 0.003856 -0.003042  0.000285)
105:   3215.14   0.002108   10.65  0.000205  ( 0.014035 -0.002711  0.000513)
106:   3222.14   0.002698   13.63  0.000261  (-0.015201  0.005435 -0.000822)
107:   3849.26   0.057346  289.80  0.004649  ( 0.021543 -0.061133  0.021160)

* The epsilon (eps) is given for a Dirac delta lineshape.
** The dipole moment derivative (T) already includes vibrational overlap.

The first frequency considered to be a vibration is 7
The total number of vibrations considered is 101


--------------------------
THERMOCHEMISTRY AT 298.15K
--------------------------

Temperature         ... 298.15 K
Pressure            ... 1.00 atm
Total Mass          ... 295.34 AMU

Throughout the following assumptions are being made:
  (1) The electronic state is orbitally nondegenerate
  (2) There are no thermally accessible electronically excited states
  (3) Hindered rotations indicated by low frequency modes are not
      treated as such but are treated as vibrations and this may
      cause some error
  (4) All equations used are the standard statistical mechanics
      equations for an ideal gas
  (5) All vibrations are strictly harmonic

freq.      25.66  E(vib)   ...       0.56 
freq.      57.42  E(vib)   ...       0.51 
freq.      70.10  E(vib)   ...       0.50 
freq.      96.30  E(vib)   ...       0.47 
freq.      99.60  E(vib)   ...       0.46 
freq.     120.47  E(vib)   ...       0.44 
freq.     147.24  E(vib)   ...       0.41 
freq.     200.81  E(vib)   ...       0.35 
freq.     219.87  E(vib)   ...       0.33 
freq.     221.08  E(vib)   ...       0.33 
freq.     255.63  E(vib)   ...       0.30 
freq.     265.98  E(vib)   ...       0.29 
freq.     289.66  E(vib)   ...       0.27 
freq.     313.67  E(vib)   ...       0.25 
freq.     335.70  E(vib)   ...       0.24 
freq.     355.31  E(vib)   ...       0.22 
freq.     378.84  E(vib)   ...       0.21 
freq.     420.18  E(vib)   ...       0.18 
freq.     443.43  E(vib)   ...       0.17 
freq.     452.19  E(vib)   ...       0.16 
freq.     493.26  E(vib)   ...       0.14 
freq.     509.94  E(vib)   ...       0.14 
freq.     515.78  E(vib)   ...       0.13 
freq.     527.45  E(vib)   ...       0.13 
freq.     532.80  E(vib)   ...       0.13 
freq.     562.17  E(vib)   ...       0.11 
freq.     565.97  E(vib)   ...       0.11 
freq.     582.01  E(vib)   ...       0.11 
freq.     620.79  E(vib)   ...       0.09 
freq.     632.30  E(vib)   ...       0.09 
freq.     678.14  E(vib)   ...       0.08 
freq.     702.61  E(vib)   ...       0.07 
freq.     719.09  E(vib)   ...       0.07 
freq.     755.04  E(vib)   ...       0.06 
freq.     765.10  E(vib)   ...       0.06 
freq.     783.32  E(vib)   ...       0.05 
freq.     815.60  E(vib)   ...       0.05 
freq.     817.39  E(vib)   ...       0.05 
freq.     832.40  E(vib)   ...       0.04 
freq.     852.31  E(vib)   ...       0.04 
freq.     859.71  E(vib)   ...       0.04 
freq.     876.89  E(vib)   ...       0.04 
freq.     885.35  E(vib)   ...       0.04 
freq.     890.26  E(vib)   ...       0.04 
freq.     942.08  E(vib)   ...       0.03 
freq.     948.02  E(vib)   ...       0.03 
freq.     985.22  E(vib)   ...       0.02 
freq.     986.16  E(vib)   ...       0.02 
freq.     993.68  E(vib)   ...       0.02 
freq.     999.07  E(vib)   ...       0.02 
freq.    1001.99  E(vib)   ...       0.02 
freq.    1012.74  E(vib)   ...       0.02 
freq.    1016.65  E(vib)   ...       0.02 
freq.    1040.70  E(vib)   ...       0.02 
freq.    1117.45  E(vib)   ...       0.01 
freq.    1130.79  E(vib)   ...       0.01 
freq.    1165.05  E(vib)   ...       0.01 
freq.    1182.39  E(vib)   ...       0.01 
freq.    1188.69  E(vib)   ...       0.01 
freq.    1198.46  E(vib)   ...       0.01 
freq.    1209.21  E(vib)   ...       0.01 
freq.    1227.69  E(vib)   ...       0.01 
freq.    1249.81  E(vib)   ...       0.01 
freq.    1265.07  E(vib)   ...       0.01 
freq.    1269.41  E(vib)   ...       0.01 
freq.    1278.05  E(vib)   ...       0.01 
freq.    1283.60  E(vib)   ...       0.01 
freq.    1331.07  E(vib)   ...       0.01 
freq.    1335.06  E(vib)   ...       0.01 
freq.    1343.31  E(vib)   ...       0.01 
freq.    1372.57  E(vib)   ...       0.01 
freq.    1378.58  E(vib)   ...       0.01 
freq.    1406.66  E(vib)   ...       0.00 
freq.    1410.63  E(vib)   ...       0.00 
freq.    1424.86  E(vib)   ...       0.00 
freq.    1441.87  E(vib)   ...       0.00 
freq.    1467.45  E(vib)   ...       0.00 
freq.    1504.13  E(vib)   ...       0.00 
freq.    1536.40  E(vib)   ...       0.00 
freq.    1546.64  E(vib)   ...       0.00 
freq.    1575.02  E(vib)   ...       0.00 
freq.    1622.15  E(vib)   ...       0.00 
freq.    1637.95  E(vib)   ...       0.00 
freq.    1656.62  E(vib)   ...       0.00 
freq.    1663.85  E(vib)   ...       0.00 
freq.    1675.59  E(vib)   ...       0.00 
freq.    1734.54  E(vib)   ...       0.00 
freq.    2336.80  E(vib)   ...       0.00 
freq.    3147.87  E(vib)   ...       0.00 
freq.    3171.16  E(vib)   ...       0.00 
freq.    3173.99  E(vib)   ...       0.00 
freq.    3174.56  E(vib)   ...       0.00 
freq.    3175.78  E(vib)   ...       0.00 
freq.    3179.09  E(vib)   ...       0.00 
freq.    3182.79  E(vib)   ...       0.00 
freq.    3191.68  E(vib)   ...       0.00 
freq.    3199.76  E(vib)   ...       0.00 
freq.    3200.74  E(vib)   ...       0.00 
freq.    3215.14  E(vib)   ...       0.00 
freq.    3222.14  E(vib)   ...       0.00 
freq.    3849.26  E(vib)   ...       0.00 

------------
INNER ENERGY
------------

The inner energy is: U= E(el) + E(ZPE) + E(vib) + E(rot) + E(trans)
    E(el)   - is the total energy from the electronic structure calculation
              = E(kin-el) + E(nuc-el) + E(el-el) + E(nuc-nuc)
    E(ZPE)  - the the zero temperature vibrational energy from the frequency calculation
    E(vib)  - the the finite temperature correction to E(ZPE) due to population
              of excited vibrational states
    E(rot)  - is the rotational thermal energy
    E(trans)- is the translational thermal energy

Summary of contributions to the inner energy U:
Electronic energy                ...   -936.78916006 Eh
Zero point energy                ...      0.27730426 Eh     174.01 kcal/mol
Thermal vibrational correction   ...      0.01431566 Eh       8.98 kcal/mol
Thermal rotational correction    ...      0.00141627 Eh       0.89 kcal/mol
Thermal translational correction ...      0.00141627 Eh       0.89 kcal/mol
-----------------------------------------------------------------------
Total thermal energy                   -936.49470760 Eh


Summary of corrections to the electronic energy:
(perhaps to be used in another calculation)
Total thermal correction                  0.01714820 Eh      10.76 kcal/mol
Non-thermal (ZPE) correction              0.27730426 Eh     174.01 kcal/mol
-----------------------------------------------------------------------
Total correction                          0.29445247 Eh     184.77 kcal/mol


--------
ENTHALPY
--------

The enthalpy is H = U + kB*T
                kB is Boltzmann's constant
Total free energy                 ...   -936.49470760 Eh 
Thermal Enthalpy correction       ...      0.00094421 Eh       0.59 kcal/mol
-----------------------------------------------------------------------
Total Enthalpy                    ...   -936.49376339 Eh


Note: Only C1 symmetry has been detected, increase convergence thresholds 
      if your molecule has a higher symmetry. Symmetry factor of 1.0 is   
      used for the rotational entropy correction. 
 

Note: Rotational entropy computed according to Herzberg 
Infrared and Raman Spectra, Chapter V,1, Van Nostrand Reinhold, 1945 
Point Group:  C1, Symmetry Number:   1  
Rotational constants in cm-1:     0.026102     0.003941     0.003429 

Vibrational entropy computed according to the QRRHO of S. Grimme
Chem.Eur.J. 2012 18 9955


-------
ENTROPY
-------

The entropy contributions are T*S = T*(S(el)+S(vib)+S(rot)+S(trans))
     S(el)   - electronic entropy
     S(vib)  - vibrational entropy
     S(rot)  - rotational entropy
     S(trans)- translational entropy
The entropies will be listed as multiplied by the temperature to get
units of energy

Electronic entropy                ...      0.00000000 Eh      0.00 kcal/mol
Vibrational entropy               ...      0.02441800 Eh     15.32 kcal/mol
Rotational entropy                ...      0.01652488 Eh     10.37 kcal/mol
Translational entropy             ...      0.02040501 Eh     12.80 kcal/mol
-----------------------------------------------------------------------
Final entropy term                ...      0.06134788 Eh     38.50 kcal/mol

In case the symmetry of your molecule has not been determined correctly
or in case you have a reason to use a different symmetry number we print 
out the resulting rotational entropy values for sn=1,12 :
 --------------------------------------------------------
|  sn= 1 | S(rot)=       0.01652488 Eh     10.37 kcal/mol|
|  sn= 2 | S(rot)=       0.01587042 Eh      9.96 kcal/mol|
|  sn= 3 | S(rot)=       0.01548759 Eh      9.72 kcal/mol|
|  sn= 4 | S(rot)=       0.01521596 Eh      9.55 kcal/mol|
|  sn= 5 | S(rot)=       0.01500528 Eh      9.42 kcal/mol|
|  sn= 6 | S(rot)=       0.01483313 Eh      9.31 kcal/mol|
|  sn= 7 | S(rot)=       0.01468758 Eh      9.22 kcal/mol|
|  sn= 8 | S(rot)=       0.01456151 Eh      9.14 kcal/mol|
|  sn= 9 | S(rot)=       0.01445030 Eh      9.07 kcal/mol|
|  sn=10 | S(rot)=       0.01435082 Eh      9.01 kcal/mol|
|  sn=11 | S(rot)=       0.01426083 Eh      8.95 kcal/mol|
|  sn=12 | S(rot)=       0.01417867 Eh      8.90 kcal/mol|
 --------------------------------------------------------


-------------------
GIBBS FREE ENERGY
-------------------

The Gibbs free energy is G = H - T*S

Total enthalpy                    ...   -936.49376339 Eh 
Total entropy correction          ...     -0.06134788 Eh    -38.50 kcal/mol
-----------------------------------------------------------------------
Final Gibbs free energy         ...   -936.55511127 Eh

For completeness - the Gibbs free energy minus the electronic energy
G-E(el)                           ...      0.23404880 Eh    146.87 kcal/mol


Timings for individual modules:

Sum of individual times         ...     2790.504 sec (=  46.508 min)
GTO integral calculation        ...      106.405 sec (=   1.773 min)   3.8 %
SCF iterations                  ...     1291.710 sec (=  21.528 min)  46.3 %
SCF Gradient evaluation         ...      210.792 sec (=   3.513 min)   7.6 %
Geometry relaxation             ...       20.995 sec (=   0.350 min)   0.8 %
Analytical frequency calculation...     1160.603 sec (=  19.343 min)  41.6 %
                             ****ORCA TERMINATED NORMALLY****
TOTAL RUN TIME: 0 days 0 hours 47 minutes 2 seconds 693 msec
