Start Job  on nano11

                                 *****************
                                 * O   R   C   A *
                                 *****************

                                            #,                                       
                                            ###                                      
                                            ####                                     
                                            #####                                    
                                            ######                                   
                                           ########,                                 
                                     ,,################,,,,,                         
                               ,,#################################,,                 
                          ,,##########################################,,             
                       ,#########################################, ''#####,          
                    ,#############################################,,   '####,        
                  ,##################################################,,,,####,       
                ,###########''''           ''''###############################       
              ,#####''   ,,,,##########,,,,          '''####'''          '####       
            ,##' ,,,,###########################,,,                        '##       
           ' ,,###''''                  '''############,,,                           
         ,,##''                                '''############,,,,        ,,,,,,###''
      ,#''                                            '''#######################'''  
     '                                                          ''''####''''         
             ,#######,   #######,   ,#######,      ##                                
            ,#'     '#,  ##    ##  ,#'     '#,    #''#        ######   ,####,        
            ##       ##  ##   ,#'  ##            #'  '#       #        #'  '#        
            ##       ##  #######   ##           ,######,      #####,   #    #        
            '#,     ,#'  ##    ##  '#,     ,#' ,#      #,         ##   #,  ,#        
             '#######'   ##     ##  '#######'  #'      '#     #####' # '####'        



                  #######################################################
                  #                        -***-                        #
                  #          Department of theory and spectroscopy      #
                  #    Directorship and core code : Frank Neese         #
                  #        Max Planck Institute fuer Kohlenforschung    #
                  #                Kaiser Wilhelm Platz 1               #
                  #                 D-45470 Muelheim/Ruhr               #
                  #                      Germany                        #
                  #                                                     #
                  #                  All rights reserved                #
                  #                        -***-                        #
                  #######################################################


                         Program Version 5.0.4 -  RELEASE  -


 With contributions from (in alphabetic order):
   Daniel Aravena         : Magnetic Suceptibility
   Michael Atanasov       : Ab Initio Ligand Field Theory (pilot matlab implementation)
   Alexander A. Auer      : GIAO ZORA, VPT2 properties, NMR spectrum
   Ute Becker             : Parallelization
   Giovanni Bistoni       : ED, misc. LED, open-shell LED, HFLD
   Martin Brehm           : Molecular dynamics
   Dmytro Bykov           : SCF Hessian
   Vijay G. Chilkuri      : MRCI spin determinant printing, contributions to CSF-ICE
   Dipayan Datta          : RHF DLPNO-CCSD density
   Achintya Kumar Dutta   : EOM-CC, STEOM-CC
   Dmitry Ganyushin       : Spin-Orbit,Spin-Spin,Magnetic field MRCI
   Miquel Garcia          : C-PCM and meta-GGA Hessian, CC/C-PCM, Gaussian charge scheme
   Yang Guo               : DLPNO-NEVPT2, F12-NEVPT2, CIM, IAO-localization
   Andreas Hansen         : Spin unrestricted coupled pair/coupled cluster methods
   Benjamin Helmich-Paris : MC-RPA, TRAH-SCF, COSX integrals
   Lee Huntington         : MR-EOM, pCC
   Robert Izsak           : Overlap fitted RIJCOSX, COSX-SCS-MP3, EOM
   Marcus Kettner         : VPT2
   Christian Kollmar      : KDIIS, OOCD, Brueckner-CCSD(T), CCSD density, CASPT2, CASPT2-K
   Simone Kossmann        : Meta GGA functionals, TD-DFT gradient, OOMP2, MP2 Hessian
   Martin Krupicka        : Initial AUTO-CI
   Lucas Lang             : DCDCAS
   Marvin Lechner         : AUTO-CI (C++ implementation), FIC-MRCC
   Dagmar Lenk            : GEPOL surface, SMD
   Dimitrios Liakos       : Extrapolation schemes; Compound Job, initial MDCI parallelization
   Dimitrios Manganas     : Further ROCIS development; embedding schemes
   Dimitrios Pantazis     : SARC Basis sets
   Anastasios Papadopoulos: AUTO-CI, single reference methods and gradients
   Taras Petrenko         : DFT Hessian,TD-DFT gradient, ASA, ECA, R-Raman, ABS, FL, XAS/XES, NRVS
   Peter Pinski           : DLPNO-MP2, DLPNO-MP2 Gradient
   Christoph Reimann      : Effective Core Potentials
   Marius Retegan         : Local ZFS, SOC
   Christoph Riplinger    : Optimizer, TS searches, QM/MM, DLPNO-CCSD(T), (RO)-DLPNO pert. Triples
   Tobias Risthaus        : Range-separated hybrids, TD-DFT gradient, RPA, STAB
   Michael Roemelt        : Original ROCIS implementation
   Masaaki Saitow         : Open-shell DLPNO-CCSD energy and density
   Barbara Sandhoefer     : DKH picture change effects
   Avijit Sen             : IP-ROCIS
   Kantharuban Sivalingam : CASSCF convergence, NEVPT2, FIC-MRCI
   Bernardo de Souza      : ESD, SOC TD-DFT
   Georgi Stoychev        : AutoAux, RI-MP2 NMR, DLPNO-MP2 response
   Willem Van den Heuvel  : Paramagnetic NMR
   Boris Wezisla          : Elementary symmetry handling
   Frank Wennmohs         : Technical directorship


 We gratefully acknowledge several colleagues who have allowed us to
 interface, adapt or use parts of their codes:
   Stefan Grimme, W. Hujo, H. Kruse, P. Pracht,  : VdW corrections, initial TS optimization,
                  C. Bannwarth, S. Ehlert          DFT functionals, gCP, sTDA/sTD-DF
   Ed Valeev, F. Pavosevic, A. Kumar             : LibInt (2-el integral package), F12 methods
   Garnet Chan, S. Sharma, J. Yang, R. Olivares  : DMRG
   Ulf Ekstrom                                   : XCFun DFT Library
   Mihaly Kallay                                 : mrcc  (arbitrary order and MRCC methods)
   Jiri Pittner, Ondrej Demel                    : Mk-CCSD
   Frank Weinhold                                : gennbo (NPA and NBO analysis)
   Christopher J. Cramer and Donald G. Truhlar   : smd solvation model
   Lars Goerigk                                  : TD-DFT with DH, B97 family of functionals
   V. Asgeirsson, H. Jonsson                     : NEB implementation
   FAccTs GmbH                                   : IRC, NEB, NEB-TS, DLPNO-Multilevel, CI-OPT
                                                   MM, QMMM, 2- and 3-layer-ONIOM, Crystal-QMMM,
                                                   LR-CPCM, SF, NACMEs, symmetry and pop. for TD-DFT,
                                                   nearIR, NL-DFT gradient (VV10), updates on ESD,
                                                   ML-optimized integration grids
   S Lehtola, MJT Oliveira, MAL Marques          : LibXC Library
   Liviu Ungur et al                             : ANISO software


 Your calculation uses the libint2 library for the computation of 2-el integrals
 For citations please refer to: http://libint.valeyev.net

 Your ORCA version has been built with support for libXC version: 5.1.0
 For citations please refer to: https://tddft.org/programs/libxc/

 This ORCA versions uses:
   CBLAS   interface :  Fast vector & matrix operations
   LAPACKE interface :  Fast linear algebra routines
   SCALAPACK package :  Parallel linear algebra routines
   Shared memory     :  Shared parallel matrices
   BLAS/LAPACK       :  OpenBLAS 0.3.15  USE64BITINT DYNAMIC_ARCH NO_AFFINITY Zen SINGLE_THREADED
        Core in use  :  Zen
   Copyright (c) 2011-2014, The OpenBLAS Project


================================================================================

----- Orbital basis set information -----
Your calculation utilizes the basis: def2-SVP
   F. Weigend and R. Ahlrichs, Phys. Chem. Chem. Phys. 7, 3297 (2005).

----- AuxJ basis set information -----
Your calculation utilizes the auxiliary basis: def2/J
   F. Weigend, Phys. Chem. Chem. Phys. 8, 1057 (2006).

================================================================================
                                        WARNINGS
                       Please study these warnings very carefully!
================================================================================


WARNING: Geometry Optimization
  ===> : Switching off AutoStart
         For restart on a previous wavefunction, please use MOREAD

INFO   : the flag for use of the SHARK integral package has been found!

================================================================================
                                       INPUT FILE
================================================================================
NAME = NC_OH_4.inp
|  1> ! B3LYP def2-SVP Opt PAL8 FREQ defgrid3 slowconv VeryTightSCF
|  2> *xyz 0 1
|  3>  C        -7.210739        2.885025       -0.200641
|  4>  C        -5.950182        3.521704       -0.205524
|  5>  C        -4.766227        2.808122       -0.151264
|  6>  C        -4.774662        1.399911       -0.082159
|  7>  C        -3.562930        0.641814        0.002012
|  8>  C        -3.579659       -0.722004        0.076110
|  9>  C        -4.809962       -1.464253        0.061855
| 10>  C        -4.840919       -2.891750        0.131189
| 11>  C        -6.097860       -3.532736        0.123258
| 12>  C        -7.287430       -2.820811        0.067140
| 13>  C        -7.287688       -1.415571       -0.003930
| 14>  C        -8.498340       -0.656567       -0.089305
| 15>  C        -8.486292        0.706981       -0.161744
| 16>  C        -7.256874        1.454582       -0.143281
| 17>  C        -6.026738        0.710365       -0.079222
| 18>  C        -6.038381       -0.723607       -0.009137
| 19>  C        -8.438128        3.677428       -0.227441
| 20>  C        -3.604470       -3.677057        0.194061
| 21>  C        -8.534240        5.012412       -0.575022
| 22>  C        -3.494309       -4.905685        0.735694
| 23>  C        -9.796930        5.683308       -0.527916
| 24>  O        -2.325071       -5.588552        0.713670
| 25>  N       -10.817535        6.248415       -0.500121
| 26>  H        -5.901540        4.613227       -0.216977
| 27>  H        -3.809023        3.336210       -0.142227
| 28>  H        -2.611665        1.180898        0.013126
| 29>  H        -2.633653       -1.257869        0.156512
| 30>  H        -6.136959       -4.624308        0.126247
| 31>  H        -8.241940       -3.354504        0.054129
| 32>  H        -9.450493       -1.194776       -0.101796
| 33>  H        -9.439671        1.228254       -0.245815
| 34>  H        -9.389102        3.147612        0.075724
| 35>  H        -2.686599       -3.252992       -0.220784
| 36>  H        -7.648078        5.643930       -0.928711
| 37>  H        -4.339022       -5.403719        1.227030
| 38>  H        -2.415913       -6.411530        1.208530
| 39> *
| 40> 
| 41>                          ****END OF INPUT****
================================================================================

                       *****************************
                       * Geometry Optimization Run *
                       *****************************

Geometry optimization settings:
Update method            Update   .... BFGS
Choice of coordinates    CoordSys .... Z-matrix Internals
Initial Hessian          InHess   .... Almoef's Model

Convergence Tolerances:
Energy Change            TolE     ....  5.0000e-06 Eh
Max. Gradient            TolMAXG  ....  3.0000e-04 Eh/bohr
RMS Gradient             TolRMSG  ....  1.0000e-04 Eh/bohr
Max. Displacement        TolMAXD  ....  4.0000e-03 bohr
RMS Displacement         TolRMSD  ....  2.0000e-03 bohr
Strict Convergence                ....  False
------------------------------------------------------------------------------
                        ORCA OPTIMIZATION COORDINATE SETUP
------------------------------------------------------------------------------

The optimization will be done in new redundant internal coordinates
Making redundant internal coordinates   ...  (new redundants) done
Evaluating the initial hessian          ...  (Almloef) done
Evaluating the coordinates              ...  done
Calculating the B-matrix                .... done
Calculating the G-matrix                .... done
Diagonalizing the G-matrix              .... done
Small eigenvalue found = 5.953e-03
Small eigenvalue found = 1.217e-02
Small eigenvalue found = 1.547e-02
The first mode is                       ....   94
The number of degrees of freedom        ....  102

    -----------------------------------------------------------------
                    Redundant Internal Coordinates


    -----------------------------------------------------------------
         Definition                    Initial Value    Approx d2E/dq
    -----------------------------------------------------------------
      1. B(C   1,C   0)                  1.4122         0.575805   
      2. B(C   2,C   1)                  1.3834         0.640048   
      3. B(C   3,C   2)                  1.4099         0.580684   
      4. B(C   4,C   3)                  1.4318         0.535831   
      5. B(C   5,C   4)                  1.3659         0.682555   
      6. B(C   6,C   5)                  1.4369         0.525844   
      7. B(C   7,C   6)                  1.4295         0.540374   
      8. B(C   8,C   7)                  1.4110         0.578479   
      9. B(C   9,C   8)                  1.3875         0.630639   
     10. B(C  10,C   9)                  1.4070         0.586893   
     11. B(C  11,C  10)                  1.4315         0.536543   
     12. B(C  12,C  11)                  1.3655         0.683579   
     13. B(C  13,C  12)                  1.4390         0.521873   
     14. B(C  13,C   0)                  1.4323         0.534804   
     15. B(C  14,C   3)                  1.4294         0.540608   
     16. B(C  14,C  13)                  1.4392         0.521553   
     17. B(C  15,C  14)                  1.4357         0.528175   
     18. B(C  15,C  10)                  1.4281         0.543093   
     19. B(C  15,C   6)                  1.4362         0.527307   
     20. B(C  16,C   0)                  1.4612         0.480999   
     21. B(C  17,C   7)                  1.4661         0.472407   
     22. B(C  18,C  16)                  1.3828         0.641461   
     23. B(C  19,C  17)                  1.3472         0.731098   
     24. B(C  20,C  18)                  1.4306         0.538163   
     25. B(O  21,C  19)                  1.3542         0.638207   
     26. B(N  22,C  20)                  1.1669         1.269845   
     27. B(H  23,C   1)                  1.0927         0.356590   
     28. B(H  24,C   2)                  1.0933         0.355825   
     29. B(H  25,C   4)                  1.0935         0.355561   
     30. B(H  26,C   5)                  1.0902         0.359831   
     31. B(H  27,C   8)                  1.0923         0.357102   
     32. B(H  28,C   9)                  1.0937         0.355294   
     33. B(H  29,C  11)                  1.0938         0.355095   
     34. B(H  30,C  12)                  1.0898         0.360328   
     35. B(H  31,C  16)                  1.1300         0.310856   
     36. B(H  32,C  17)                  1.0929         0.356293   
     37. B(H  33,C  18)                  1.1442         0.295087   
     38. B(H  34,C  19)                  1.0968         0.351205   
     39. B(H  35,O  21)                  0.9646         0.511265   
     40. A(C   1,C   0,C  16)          120.3463         0.409391   
     41. A(C   1,C   0,C  13)          118.6283         0.417173   
     42. A(C  13,C   0,C  16)          121.0147         0.404079   
     43. A(C   2,C   1,H  23)          118.5273         0.354228   
     44. A(C   0,C   1,H  23)          119.3493         0.347954   
     45. A(C   0,C   1,C   2)          122.0878         0.430791   
     46. A(C   1,C   2,C   3)          120.7957         0.431445   
     47. A(C   1,C   2,H  24)          120.0316         0.354099   
     48. A(C   3,C   2,H  24)          119.1624         0.348323   
     49. A(C   2,C   3,C  14)          119.1538         0.418605   
     50. A(C   2,C   3,C   4)          121.7786         0.417943   
     51. A(C   4,C   3,C  14)          119.0629         0.412662   
     52. A(C   5,C   4,H  25)          120.1557         0.357940   
     53. A(C   3,C   4,C   5)          121.4310         0.430200   
     54. A(C   3,C   4,H  25)          118.4120         0.343604   
     55. A(C   4,C   5,H  26)          118.9562         0.358668   
     56. A(C   4,C   5,C   6)          121.7153         0.428750   
     57. A(C   6,C   5,H  26)          119.3265         0.343208   
     58. A(C   5,C   6,C   7)          122.2681         0.411255   
     59. A(C   7,C   6,C  15)          119.9241         0.411458   
     60. A(C   5,C   6,C  15)          117.8036         0.409474   
     61. A(C   6,C   7,C   8)          118.2075         0.418289   
     62. A(C   8,C   7,C  17)          120.5439         0.408421   
     63. A(C   6,C   7,C  17)          121.2452         0.403533   
     64. A(C   9,C   8,H  27)          118.8293         0.353426   
     65. A(C   7,C   8,H  27)          119.0694         0.348310   
     66. A(C   7,C   8,C   9)          122.0664         0.430005   
     67. A(C  10,C   9,H  28)          119.1177         0.348860   
     68. A(C   8,C   9,H  28)          119.8924         0.353123   
     69. A(C   8,C   9,C  10)          120.9745         0.431121   
     70. A(C  11,C  10,C  15)          118.8629         0.413095   
     71. A(C   9,C  10,C  15)          118.9420         0.419742   
     72. A(C   9,C  10,C  11)          122.1897         0.418835   
     73. A(C  10,C  11,H  29)          118.4244         0.343605   
     74. A(C  10,C  11,C  12)          121.6796         0.430419   
     75. A(C  12,C  11,H  29)          119.8950         0.357952   
     76. A(C  13,C  12,H  30)          119.9924         0.342852   
     77. A(C  11,C  12,H  30)          118.2936         0.358844   
     78. A(C  11,C  12,C  13)          121.7109         0.428283   
     79. A(C  12,C  13,C  14)          117.5279         0.408131   
     80. A(C   0,C  13,C  14)          119.3856         0.409904   
     81. A(C   0,C  13,C  12)          123.0826         0.409949   
     82. A(C  13,C  14,C  15)          120.7788         0.409000   
     83. A(C   3,C  14,C  15)          119.2759         0.411609   
     84. A(C   3,C  14,C  13)          119.9452         0.410689   
     85. A(C  10,C  15,C  14)          119.4193         0.411944   
     86. A(C   6,C  15,C  14)          120.7005         0.409795   
     87. A(C   6,C  15,C  10)          119.8796         0.411824   
     88. A(C  18,C  16,H  31)          117.4885         0.346243   
     89. A(C   0,C  16,H  31)          116.5970         0.330016   
     90. A(C   0,C  16,C  18)          125.9107         0.417317   
     91. A(C  19,C  17,H  32)          115.9632         0.362282   
     92. A(C   7,C  17,H  32)          118.9587         0.336562   
     93. A(C   7,C  17,C  19)          125.0778         0.425806   
     94. A(C  20,C  18,H  33)          115.7799         0.333325   
     95. A(C  16,C  18,H  33)          123.8278         0.343230   
     96. A(C  16,C  18,C  20)          120.3839         0.425769   
     97. A(O  21,C  19,H  34)          116.3128         0.350970   
     98. A(C  17,C  19,H  34)          122.0883         0.361394   
     99. A(C  17,C  19,O  21)          121.5956         0.446570   
    100. L(C  18,C  20,N  22,C  16, 2) 180.3988         0.478826   
    101. L(C  18,C  20,N  22,C  16, 1) 181.1028         0.478826   
    102. A(C  19,O  21,H  35)          109.9114         0.370886   
    103. D(H  23,C   1,C   0,C  13)   -178.0709         0.022764   
    104. D(H  23,C   1,C   0,C  16)      0.7562         0.022764   
    105. D(C   2,C   1,C   0,C  13)     -0.2710         0.022764   
    106. D(C   2,C   1,C   0,C  16)    178.5561         0.022764   
    107. D(C   3,C   2,C   1,C   0)     -0.2874         0.028463   
    108. D(C   3,C   2,C   1,H  23)    177.5299         0.028463   
    109. D(H  24,C   2,C   1,H  23)     -1.2910         0.028463   
    110. D(H  24,C   2,C   1,C   0)   -179.1083         0.028463   
    111. D(C  14,C   3,C   2,H  24)    179.3211         0.023169   
    112. D(C   4,C   3,C   2,C   1)   -178.7178         0.023169   
    113. D(C   4,C   3,C   2,H  24)      0.1132         0.023169   
    114. D(C  14,C   3,C   2,C   1)      0.4901         0.023169   
    115. D(H  25,C   4,C   3,C   2)      0.0570         0.019609   
    116. D(C   5,C   4,C   3,C   2)    179.6319         0.019609   
    117. D(C   5,C   4,C   3,C  14)      0.4233         0.019609   
    118. D(H  25,C   4,C   3,C  14)   -179.1516         0.019609   
    119. D(H  26,C   5,C   4,H  25)      0.6319         0.032677   
    120. D(C   6,C   5,C   4,C   3)      0.5423         0.032677   
    121. D(C   6,C   5,C   4,H  25)   -179.8901         0.032677   
    122. D(H  26,C   5,C   4,C   3)   -178.9358         0.032677   
    123. D(C  15,C   6,C   5,H  26)    178.3712         0.018867   
    124. D(C  15,C   6,C   5,C   4)     -1.1050         0.018867   
    125. D(C   7,C   6,C   5,H  26)     -0.8843         0.018867   
    126. D(C   7,C   6,C   5,C   4)    179.6396         0.018867   
    127. D(C  17,C   7,C   6,C  15)    179.5189         0.019953   
    128. D(C  17,C   7,C   6,C   5)     -1.2410         0.019953   
    129. D(C   8,C   7,C   6,C  15)      0.1880         0.019953   
    130. D(C   8,C   7,C   6,C   5)    179.4281         0.019953   
    131. D(H  27,C   8,C   7,C   6)    177.0303         0.022985   
    132. D(C   9,C   8,C   7,C  17)    179.8698         0.022985   
    133. D(C   9,C   8,C   7,C   6)     -0.7944         0.022985   
    134. D(H  27,C   8,C   7,C  17)     -2.3055         0.022985   
    135. D(H  28,C   9,C   8,H  27)      1.6439         0.027579   
    136. D(H  28,C   9,C   8,C   7)    179.4737         0.027579   
    137. D(C  10,C   9,C   8,H  27)   -176.9161         0.027579   
    138. D(C  10,C   9,C   8,C   7)      0.9136         0.027579   
    139. D(C  15,C  10,C   9,H  28)   -178.9676         0.023691   
    140. D(C  15,C  10,C   9,C   8)     -0.3966         0.023691   
    141. D(C  11,C  10,C   9,H  28)      0.1764         0.023691   
    142. D(C  11,C  10,C   9,C   8)    178.7474         0.023691   
    143. D(H  29,C  11,C  10,C  15)    178.9813         0.019663   
    144. D(H  29,C  11,C  10,C   9)     -0.1633         0.019663   
    145. D(C  12,C  11,C  10,C  15)     -0.6608         0.019663   
    146. D(C  12,C  11,C  10,C   9)   -179.8054         0.019663   
    147. D(H  30,C  12,C  11,H  29)     -0.8837         0.032782   
    148. D(H  30,C  12,C  11,C  10)    178.7532         0.032782   
    149. D(C  13,C  12,C  11,H  29)    179.7594         0.032782   
    150. D(C  13,C  12,C  11,C  10)     -0.6037         0.032782   
    151. D(C  14,C  13,C  12,H  30)   -177.8092         0.018577   
    152. D(C   0,C  13,C  12,H  30)      1.4653         0.018577   
    153. D(C   0,C  13,C  12,C  11)   -179.1886         0.018577   
    154. D(C  14,C  13,C   0,C  16)   -178.2103         0.019532   
    155. D(C  14,C  13,C   0,C   1)      0.6087         0.019532   
    156. D(C  14,C  13,C  12,C  11)      1.5370         0.018577   
    157. D(C  12,C  13,C   0,C  16)      2.5281         0.019532   
    158. D(C  12,C  13,C   0,C   1)   -178.6529         0.019532   
    159. D(C   3,C  14,C  13,C  12)    178.8939         0.018553   
    160. D(C   3,C  14,C  13,C   0)     -0.4084         0.018553   
    161. D(C  15,C  14,C   3,C   4)     -0.7799         0.019971   
    162. D(C  15,C  14,C   3,C   2)    179.9905         0.019971   
    163. D(C  13,C  14,C   3,C   4)    179.0905         0.019971   
    164. D(C  15,C  14,C  13,C   0)    179.4600         0.018553   
    165. D(C  13,C  14,C   3,C   2)     -0.1391         0.019971   
    166. D(C  15,C  14,C  13,C  12)     -1.2377         0.018553   
    167. D(C  10,C  15,C  14,C  13)      0.0349         0.019039   
    168. D(C   6,C  15,C  14,C  13)   -179.6689         0.019039   
    169. D(C   6,C  15,C  14,C   3)      0.2004         0.019039   
    170. D(C  14,C  15,C  10,C  11)      0.9258         0.020161   
    171. D(C  14,C  15,C  10,C   9)   -179.9015         0.020161   
    172. D(C   6,C  15,C  10,C  11)   -179.3680         0.020161   
    173. D(C   6,C  15,C  10,C   9)     -0.1952         0.020161   
    174. D(C  14,C  15,C   6,C   7)    179.9949         0.018974   
    175. D(C  14,C  15,C   6,C   5)      0.7213         0.018974   
    176. D(C  10,C  15,C  14,C   3)    179.9042         0.019039   
    177. D(C  10,C  15,C   6,C   7)      0.2924         0.018974   
    178. D(C  10,C  15,C   6,C   5)   -178.9812         0.018974   
    179. D(H  31,C  16,C   0,C  13)     15.9688         0.015752   
    180. D(H  31,C  16,C   0,C   1)   -162.8299         0.015752   
    181. D(C  18,C  16,C   0,C  13)   -164.7623         0.015752   
    182. D(C  18,C  16,C   0,C   1)     16.4390         0.015752   
    183. D(H  32,C  17,C   7,C   8)    153.8203         0.015195   
    184. D(H  32,C  17,C   7,C   6)    -25.4951         0.015195   
    185. D(C  19,C  17,C   7,C   8)    -26.4116         0.015195   
    186. D(C  19,C  17,C   7,C   6)    154.2731         0.015195   
    187. D(H  33,C  18,C  16,H  31)   -178.0676         0.028597   
    188. D(H  33,C  18,C  16,C   0)      2.6693         0.028597   
    189. D(C  20,C  18,C  16,H  31)      0.8373         0.028597   
    190. D(C  20,C  18,C  16,C   0)   -178.4258         0.028597   
    191. D(H  34,C  19,C  17,H  32)    176.7302         0.037935   
    192. D(H  34,C  19,C  17,C   7)     -3.0442         0.037935   
    193. D(O  21,C  19,C  17,H  32)     -2.5963         0.037935   
    194. D(O  21,C  19,C  17,C   7)    177.6293         0.037935   
    195. D(H  35,O  21,C  19,H  34)     -4.0204         0.030014   
    196. D(H  35,O  21,C  19,C  17)    175.3431         0.030014   
    -----------------------------------------------------------------

Number of atoms                         .... 36
Number of degrees of freedom            .... 196

         *************************************************************
         *                GEOMETRY OPTIMIZATION CYCLE   1            *
         *************************************************************
---------------------------------
CARTESIAN COORDINATES (ANGSTROEM)
---------------------------------
  C     -7.210739    2.885025   -0.200641
  C     -5.950182    3.521704   -0.205524
  C     -4.766227    2.808122   -0.151264
  C     -4.774662    1.399911   -0.082159
  C     -3.562930    0.641814    0.002012
  C     -3.579659   -0.722004    0.076110
  C     -4.809962   -1.464253    0.061855
  C     -4.840919   -2.891750    0.131189
  C     -6.097860   -3.532736    0.123258
  C     -7.287430   -2.820811    0.067140
  C     -7.287688   -1.415571   -0.003930
  C     -8.498340   -0.656567   -0.089305
  C     -8.486292    0.706981   -0.161744
  C     -7.256874    1.454582   -0.143281
  C     -6.026738    0.710365   -0.079222
  C     -6.038381   -0.723607   -0.009137
  C     -8.438128    3.677428   -0.227441
  C     -3.604470   -3.677057    0.194061
  C     -8.534240    5.012412   -0.575022
  C     -3.494309   -4.905685    0.735694
  C     -9.796930    5.683308   -0.527916
  O     -2.325071   -5.588552    0.713670
  N    -10.817535    6.248415   -0.500121
  H     -5.901540    4.613227   -0.216977
  H     -3.809023    3.336210   -0.142227
  H     -2.611665    1.180898    0.013126
  H     -2.633653   -1.257869    0.156512
  H     -6.136959   -4.624308    0.126247
  H     -8.241940   -3.354504    0.054129
  H     -9.450493   -1.194776   -0.101796
  H     -9.439671    1.228254   -0.245815
  H     -9.389102    3.147612    0.075724
  H     -2.686599   -3.252992   -0.220784
  H     -7.648078    5.643930   -0.928711
  H     -4.339022   -5.403719    1.227030
  H     -2.415913   -6.411530    1.208530

----------------------------
CARTESIAN COORDINATES (A.U.)
----------------------------
  NO LB      ZA    FRAG     MASS         X           Y           Z
   0 C     6.0000    0    12.011  -13.626322    5.451907   -0.379157
   1 C     6.0000    0    12.011  -11.244214    6.655056   -0.388384
   2 C     6.0000    0    12.011   -9.006864    5.306582   -0.285848
   3 C     6.0000    0    12.011   -9.022804    2.645448   -0.155258
   4 C     6.0000    0    12.011   -6.732962    1.212853    0.003802
   5 C     6.0000    0    12.011   -6.764575   -1.364390    0.143827
   6 C     6.0000    0    12.011   -9.089511   -2.767037    0.116889
   7 C     6.0000    0    12.011   -9.148011   -5.464616    0.247911
   8 C     6.0000    0    12.011  -11.523285   -6.675904    0.232924
   9 C     6.0000    0    12.011  -13.771247   -5.330560    0.126876
  10 C     6.0000    0    12.011  -13.771734   -2.675042   -0.007427
  11 C     6.0000    0    12.011  -16.059535   -1.240732   -0.168762
  12 C     6.0000    0    12.011  -16.036768    1.336000   -0.305652
  13 C     6.0000    0    12.011  -13.713504    2.748762   -0.270762
  14 C     6.0000    0    12.011  -11.388884    1.342395   -0.149708
  15 C     6.0000    0    12.011  -11.410886   -1.367419   -0.017266
  16 C     6.0000    0    12.011  -15.945751    6.949332   -0.429801
  17 C     6.0000    0    12.011   -6.811461   -6.948631    0.366722
  18 C     6.0000    0    12.011  -16.127376    9.472086   -1.086634
  19 C     6.0000    0    12.011   -6.603287   -9.270401    1.390260
  20 C     6.0000    0    12.011  -18.513515   10.739896   -0.997617
  21 O     8.0000    0    15.999   -4.393747  -10.560833    1.348641
  22 N     7.0000    0    14.007  -20.442179   11.807793   -0.945092
  23 H     1.0000    0     1.008  -11.152294    8.717736   -0.410027
  24 H     1.0000    0     1.008   -7.198010    6.304523   -0.268770
  25 H     1.0000    0     1.008   -4.935332    2.231574    0.024805
  26 H     1.0000    0     1.008   -4.976883   -2.377028    0.295765
  27 H     1.0000    0     1.008  -11.597172   -8.738676    0.238572
  28 H     1.0000    0     1.008  -15.575009   -6.339094    0.102289
  29 H     1.0000    0     1.008  -17.858844   -2.257799   -0.192367
  30 H     1.0000    0     1.008  -17.838393    2.321064   -0.464523
  31 H     1.0000    0     1.008  -17.742831    5.948125    0.143098
  32 H     1.0000    0     1.008   -5.076936   -6.147264   -0.417221
  33 H     1.0000    0     1.008  -14.452773   10.665482   -1.755009
  34 H     1.0000    0     1.008   -8.199563  -10.211549    2.318751
  35 H     1.0000    0     1.008   -4.565414  -12.116036    2.283791

--------------------------------
INTERNAL COORDINATES (ANGSTROEM)
--------------------------------
 C      0   0   0     0.000000000000     0.00000000     0.00000000
 C      1   0   0     1.412228006725     0.00000000     0.00000000
 C      2   1   0     1.383435166659   122.08781412     0.00000000
 C      3   2   1     1.409930803540   120.79565314   359.71264778
 C      4   3   2     1.431813625607   121.77862711   181.28218202
 C      5   4   3     1.365931883429   121.43097890   179.63192129
 C      6   5   4     1.436935021090   121.71529397     0.54230038
 C      7   6   5     1.429515031196   122.26807523   179.63957170
 C      8   7   6     1.410966558937   118.20750795   179.42808443
 C      9   8   7     1.387466475432   122.06642440   359.20561270
 C     10   9   8     1.407036058196   120.97451066     0.91364645
 C     11  10   9     1.431451790227   122.18972491   178.74739791
 C     12  11  10     1.365523969518   121.67957550   180.19460610
 C      1   2   3     1.432335779094   118.62834046   359.72902573
 C      4   3   2     1.429397293219   119.15382511     0.49007389
 C     11  10   9     1.428148896437   118.94195962   359.60344623
 C      1   2   3     1.461199682360   120.34632137   178.55609371
 C      8   7   6     1.466105760931   121.24521359   358.75897962
 C     17   1   2     1.382834895554   125.91066163    16.43899718
 C     18   8   7     1.347229941396   125.07775105   154.27306418
 C     19  17   1     1.430631487893   120.38393763   181.57422185
 O     20  18   8     1.354219294246   121.59563700   177.62929301
 N     21  19  17     1.166941750688   178.88070690   189.67734070
 H      2   1   3     1.092666314527   119.34934211   182.20011808
 H      3   2   1     1.093251160863   120.03157326   180.89170711
 H      5   4   3     1.093453327892   118.41199599     0.05695981
 H      6   5   4     1.090203252547   118.95615823   181.06424918
 H      9   8   7     1.092276108457   119.06940020   177.03031538
 H     10   9   8     1.093657553565   119.89239322   179.47366466
 H     12  11  10     1.093809987233   118.42444277   359.83668808
 H     13  12  11     1.089827964043   118.29356938   178.75320416
 H     17   1   2     1.130029008370   116.59703107   197.17005648
 H     18   8   7     1.092892799359   118.95865787   334.50492034
 H     19  17   1     1.144200150013   123.82781030     2.66927758
 H     20  18   8     1.096808544105   122.08832923   356.95579437
 H     22  20  18     0.964588760586   109.91138284   175.34307523

---------------------------
INTERNAL COORDINATES (A.U.)
---------------------------
 C      0   0   0     0.000000000000     0.00000000     0.00000000
 C      1   0   0     2.668724171364     0.00000000     0.00000000
 C      2   1   0     2.614313589021   122.08781412     0.00000000
 C      3   2   1     2.664383086470   120.79565314   359.71264778
 C      4   3   2     2.705735627214   121.77862711   181.28218202
 C      5   4   3     2.581237177273   121.43097890   179.63192129
 C      6   5   4     2.715413662101   121.71529397     0.54230038
 C      7   6   5     2.701391913283   122.26807523   179.63957170
 C      8   7   6     2.666340380512   118.20750795   179.42808443
 C      9   8   7     2.621931658564   122.06642440   359.20561270
 C     10   9   8     2.658912810543   120.97451066     0.91364645
 C     11  10   9     2.705051857441   122.18972491   178.74739791
 C     12  11  10     2.580466331695   121.67957550   180.19460610
 C      1   2   3     2.706722354305   118.62834046   359.72902573
 C      4   3   2     2.701169420752   119.15382511     0.49007389
 C     11  10   9     2.698810292728   118.94195962   359.60344623
 C      1   2   3     2.761267226634   120.34632137   178.55609371
 C      8   7   6     2.770538371523   121.24521359   358.75897962
 C     17   1   2     2.613179241026   125.91066163    16.43899718
 C     18   8   7     2.545895628657   125.07775105   154.27306418
 C     19  17   1     2.703501710683   120.38393763   181.57422185
 O     20  18   8     2.559103591398   121.59563700   177.62929301
 N     21  19  17     2.205200323039   178.88070690   189.67734070
 H      2   1   3     2.064840090217   119.34934211   182.20011808
 H      3   2   1     2.065945289623   120.03157326   180.89170711
 H      5   4   3     2.066327329940   118.41199599     0.05695981
 H      6   5   4     2.060185577625   118.95615823   181.06424918
 H      9   8   7     2.064102707609   119.06940020   177.03031538
 H     10   9   8     2.066713260532   119.89239322   179.47366466
 H     12  11  10     2.067001318419   118.42444277   359.83668808
 H     13  12  11     2.059476385131   118.29356938   178.75320416
 H     17   1   2     2.135445349205   116.59703107   197.17005648
 H     18   8   7     2.065268084523   118.95865787   334.50492034
 H     19  17   1     2.162224925916   123.82781030     2.66927758
 H     20  18   8     2.072667769703   122.08832923   356.95579437
 H     22  20  18     1.822808589365   109.91138284   175.34307523

---------------------
BASIS SET INFORMATION
---------------------
There are 4 groups of distinct atoms

 Group   1 Type C   : 7s4p1d contracted to 3s2p1d pattern {511/31/1}
 Group   2 Type O   : 7s4p1d contracted to 3s2p1d pattern {511/31/1}
 Group   3 Type N   : 7s4p1d contracted to 3s2p1d pattern {511/31/1}
 Group   4 Type H   : 4s1p contracted to 2s1p pattern {31/1}

Atom   0C    basis set group =>   1
Atom   1C    basis set group =>   1
Atom   2C    basis set group =>   1
Atom   3C    basis set group =>   1
Atom   4C    basis set group =>   1
Atom   5C    basis set group =>   1
Atom   6C    basis set group =>   1
Atom   7C    basis set group =>   1
Atom   8C    basis set group =>   1
Atom   9C    basis set group =>   1
Atom  10C    basis set group =>   1
Atom  11C    basis set group =>   1
Atom  12C    basis set group =>   1
Atom  13C    basis set group =>   1
Atom  14C    basis set group =>   1
Atom  15C    basis set group =>   1
Atom  16C    basis set group =>   1
Atom  17C    basis set group =>   1
Atom  18C    basis set group =>   1
Atom  19C    basis set group =>   1
Atom  20C    basis set group =>   1
Atom  21O    basis set group =>   2
Atom  22N    basis set group =>   3
Atom  23H    basis set group =>   4
Atom  24H    basis set group =>   4
Atom  25H    basis set group =>   4
Atom  26H    basis set group =>   4
Atom  27H    basis set group =>   4
Atom  28H    basis set group =>   4
Atom  29H    basis set group =>   4
Atom  30H    basis set group =>   4
Atom  31H    basis set group =>   4
Atom  32H    basis set group =>   4
Atom  33H    basis set group =>   4
Atom  34H    basis set group =>   4
Atom  35H    basis set group =>   4
---------------------------------
AUXILIARY/J BASIS SET INFORMATION
---------------------------------
There are 4 groups of distinct atoms

 Group   1 Type C   : 12s5p4d2f1g contracted to 6s4p3d1f1g pattern {711111/2111/211/2/1}
 Group   2 Type O   : 12s5p4d2f1g contracted to 6s4p3d1f1g pattern {711111/2111/211/2/1}
 Group   3 Type N   : 12s5p4d2f1g contracted to 6s4p3d1f1g pattern {711111/2111/211/2/1}
 Group   4 Type H   : 5s2p1d contracted to 3s1p1d pattern {311/2/1}

Atom   0C    basis set group =>   1
Atom   1C    basis set group =>   1
Atom   2C    basis set group =>   1
Atom   3C    basis set group =>   1
Atom   4C    basis set group =>   1
Atom   5C    basis set group =>   1
Atom   6C    basis set group =>   1
Atom   7C    basis set group =>   1
Atom   8C    basis set group =>   1
Atom   9C    basis set group =>   1
Atom  10C    basis set group =>   1
Atom  11C    basis set group =>   1
Atom  12C    basis set group =>   1
Atom  13C    basis set group =>   1
Atom  14C    basis set group =>   1
Atom  15C    basis set group =>   1
Atom  16C    basis set group =>   1
Atom  17C    basis set group =>   1
Atom  18C    basis set group =>   1
Atom  19C    basis set group =>   1
Atom  20C    basis set group =>   1
Atom  21O    basis set group =>   2
Atom  22N    basis set group =>   3
Atom  23H    basis set group =>   4
Atom  24H    basis set group =>   4
Atom  25H    basis set group =>   4
Atom  26H    basis set group =>   4
Atom  27H    basis set group =>   4
Atom  28H    basis set group =>   4
Atom  29H    basis set group =>   4
Atom  30H    basis set group =>   4
Atom  31H    basis set group =>   4
Atom  32H    basis set group =>   4
Atom  33H    basis set group =>   4
Atom  34H    basis set group =>   4
Atom  35H    basis set group =>   4


           ************************************************************
           *        Program running with 8 parallel MPI-processes     *
           *              working on a common directory               *
           ************************************************************
------------------------------------------------------------------------------
                           ORCA GTO INTEGRAL CALCULATION
                           -- RI-GTO INTEGRALS CHOSEN --
------------------------------------------------------------------------------
------------------------------------------------------------------------------
                   ___                                                        
                  /   \      - P O W E R E D   B Y -                         
                 /     \                                                     
                 |  |  |   _    _      __       _____    __    __             
                 |  |  |  | |  | |    /  \     |  _  \  |  |  /  |          
                  \  \/   | |  | |   /    \    | | | |  |  | /  /          
                 / \  \   | |__| |  /  /\  \   | |_| |  |  |/  /          
                |  |  |   |  __  | /  /__\  \  |    /   |      \           
                |  |  |   | |  | | |   __   |  |    \   |  |\   \          
                \     /   | |  | | |  |  |  |  | |\  \  |  | \   \       
                 \___/    |_|  |_| |__|  |__|  |_| \__\ |__|  \__/        
                                                                              
                      - O R C A' S   B I G   F R I E N D -                    
                                      &                                       
                       - I N T E G R A L  F E E D E R -                       
                                                                              
 v1 FN, 2020, v2 2021                                                         
------------------------------------------------------------------------------


Reading SHARK input file NC_OH_4.SHARKINP.tmp ... ok
----------------------
SHARK INTEGRAL PACKAGE
----------------------

Number of atoms                             ...     36
Number of basis functions                   ...    387
Number of shells                            ...    177
Maximum angular momentum                    ...      2
Integral batch strategy                     ... SHARK/LIBINT Hybrid
RI-J (if used) integral strategy            ... SPLIT-RIJ (Revised 2003 algorithm where possible)
Printlevel                                  ...      1
Contraction scheme used                     ... SEGMENTED contraction
Coulomb Range Separation                    ... NOT USED
Exchange Range Separation                   ... NOT USED
Finite Nucleus Model                        ... NOT USED
Auxiliary Coulomb fitting basis             ... AVAILABLE
   # of basis functions in Aux-J            ...   1270
   # of shells in Aux-J                     ...    410
   Maximum angular momentum in Aux-J        ...      4
Auxiliary J/K fitting basis                 ... NOT available
Auxiliary Correlation fitting basis         ... NOT available
Auxiliary 'external' fitting basis          ... NOT available
Integral threshold                          ...     1.000000e-12
Primitive cut-off                           ...     1.000000e-14
Primitive pair pre-selection threshold      ...     1.000000e-14

Calculating pre-screening integrals         ... done (  0.0 sec) Dimension = 177
Organizing shell pair data                  ... done (  1.1 sec)
Shell pair information
Total number of shell pairs                 ...     15753
Shell pairs after pre-screening             ...     11840
Total number of primitive shell pairs       ...     58649
Primitive shell pairs kept                  ...     28606
          la=0 lb=0:   3451 shell pairs
          la=1 lb=0:   4330 shell pairs
          la=1 lb=1:   1397 shell pairs
          la=2 lb=0:   1511 shell pairs
          la=2 lb=1:    967 shell pairs
          la=2 lb=2:    184 shell pairs

Calculating one electron integrals          ... done (  0.0 sec)
Calculating RI/J V-Matrix + Cholesky decomp.... done (  8.2 sec)
Calculating Nuclear repulsion               ... done (  0.0 sec) ENN=   1621.827072430858 Eh

SHARK setup successfully completed in  10.7 seconds

Maximum memory used throughout the entire GTOINT-calculation: 21.4 MB


           ************************************************************
           *        Program running with 8 parallel MPI-processes     *
           *              working on a common directory               *
           ************************************************************
-------------------------------------------------------------------------------
                                 ORCA SCF
-------------------------------------------------------------------------------

------------
SCF SETTINGS
------------
Hamiltonian:
 Density Functional     Method          .... DFT(GTOs)
 Exchange Functional    Exchange        .... B88
   X-Alpha parameter    XAlpha          ....  0.666667
   Becke's b parameter  XBeta           ....  0.004200
 Correlation Functional Correlation     .... LYP
 LDA part of GGA corr.  LDAOpt          .... VWN-5
 Gradients option       PostSCFGGA      .... off
 Hybrid DFT is turned on
   Fraction HF Exchange ScalHFX         ....  0.200000
   Scaling of DF-GGA-X  ScalDFX         ....  0.720000
   Scaling of DF-GGA-C  ScalDFC         ....  0.810000
   Scaling of DF-LDA-C  ScalLDAC        ....  1.000000
   Perturbative correction              ....  0.000000
   Density functional embedding theory  .... OFF
   NL short-range parameter             ....  4.800000
 RI-approximation to the Coulomb term is turned on
   Number of AuxJ basis functions       .... 1270
   RIJ-COSX (HFX calculated with COS-X)).... on


General Settings:
 Integral files         IntName         .... NC_OH_4
 Hartree-Fock type      HFTyp           .... RHF
 Total Charge           Charge          ....    0
 Multiplicity           Mult            ....    1
 Number of Electrons    NEL             ....  154
 Basis Dimension        Dim             ....  387
 Nuclear Repulsion      ENuc            ....   1621.8270724309 Eh

Convergence Acceleration:
 DIIS                   CNVDIIS         .... on
   Start iteration      DIISMaxIt       ....     0
   Startup error        DIISStart       ....  0.200000
   # of expansion vecs  DIISMaxEq       ....     5
   Bias factor          DIISBfac        ....   1.050
   Max. coefficient     DIISMaxC        ....  10.000
 Trust-Rad. Augm. Hess. CNVTRAH         .... auto
   Auto Start mean grad. ratio tolernc. ....  1.125000
   Auto Start start iteration           ....    20
   Auto Start num. interpolation iter.  ....    10
   Max. Number of Micro iterations      ....    16
   Max. Number of Macro iterations      .... Maxiter - #DIIS iter
   Number of Davidson start vectors     ....     2
   Converg. threshold I  (grad. norm)   ....   2.000e-06
   Converg. threshold II (energy diff.) ....   1.000e-09
   Grad. Scal. Fac. for Micro threshold ....   0.100
   Minimum threshold for Micro iter.    ....   0.010
   NR start threshold (gradient norm)   ....   0.001
   Initial trust radius                 ....   0.400
   Minimum AH scaling param. (alpha)    ....   1.000
   Maximum AH scaling param. (alpha)    .... 1000.000
   Orbital update algorithm             .... Taylor
   White noise on init. David. guess    .... on
   Maximum white noise                  ....   0.010
   Quad. conv. algorithm                .... NR
 SOSCF                  CNVSOSCF        .... on
   Start iteration      SOSCFMaxIt      ....   150
   Startup grad/error   SOSCFStart      ....  0.001000
 Level Shifting         CNVShift        .... on
   Level shift para.    LevelShift      ....    0.2500
   Turn off err/grad.   ShiftErr        ....    0.0000
 Zerner damping         CNVZerner       .... off
 Static damping         CNVDamp         .... on
   Fraction old density DampFac         ....    0.8500
   Max. Damping (<1)    DampMax         ....    0.9800
   Min. Damping (>=0)   DampMin         ....    0.0000
   Turn off err/grad.   DampErr         ....    0.0300
 Fernandez-Rico         CNVRico         .... off

SCF Procedure:
 Maximum # iterations   MaxIter         ....   125
 SCF integral mode      SCFMode         .... Direct
   Integral package                     .... SHARK and LIBINT hybrid scheme
 Reset frequency        DirectResetFreq ....    20
 Integral Threshold     Thresh          ....  1.000e-12 Eh
 Primitive CutOff       TCut            ....  1.000e-14 Eh

Convergence Tolerance:
 Convergence Check Mode ConvCheckMode   .... Total+1el-Energy
 Convergence forced     ConvForced      .... 0
 Energy Change          TolE            ....  1.000e-09 Eh
 1-El. energy change                    ....  1.000e-06 Eh
 Orbital Gradient       TolG            ....  2.000e-06
 Orbital Rotation angle TolX            ....  2.000e-06
 DIIS Error             TolErr          ....  1.000e-08


Diagonalization of the overlap matrix:
Smallest eigenvalue                        ... 2.008e-04
Time for diagonalization                   ...    0.026 sec
Threshold for overlap eigenvalues          ... 1.000e-08
Number of eigenvalues below threshold      ... 0
Time for construction of square roots      ...    0.017 sec
Total time needed                          ...    0.044 sec

Time for model grid setup =    0.605 sec

------------------------------
INITIAL GUESS: MODEL POTENTIAL
------------------------------
Loading Hartree-Fock densities                     ... done
Calculating cut-offs                               ... done
Initializing the effective Hamiltonian             ... done
Setting up the integral package (SHARK)            ... done
Starting the Coulomb interaction                   ... done (   0.2 sec)
Reading the grid                                   ... done
Mapping shells                                     ... done
Starting the XC term evaluation                    ... done (   0.1 sec)
  promolecular density results
     # of electrons  =    153.992370257
     EX              =   -126.523075563
     EC              =     -5.228719465
     EX+EC           =   -131.751795029
Transforming the Hamiltonian                       ... done (   0.0 sec)
Diagonalizing the Hamiltonian                      ... done (   0.0 sec)
Back transforming the eigenvectors                 ... done (   0.0 sec)
Now organizing SCF variables                       ... done
                      ------------------
                      INITIAL GUESS DONE (   0.9 sec)
                      ------------------
-------------------
DFT GRID GENERATION
-------------------

General Integration Accuracy     IntAcc      ... 4.959
Radial Grid Type                 RadialGrid  ... OptM3 with GC (2021)
Angular Grid (max. ang.)         AngularGrid ... 6 (Lebedev-590)
Angular grid pruning method      GridPruning ... 4 (adaptive)
Weight generation scheme         WeightScheme... Becke
Basis function cutoff            BFCut       ... 1.0000e-12
Integration weight cutoff        WCut        ... 1.0000e-14
Angular grids for H and He will be reduced by one unit
Partially contracted basis set               ... off
Rotationally invariant grid construction     ... off

Total number of grid points                  ...   436828
Total number of batches                      ...     6843
Average number of points per batch           ...       63
Average number of grid points per atom       ...    12134
Time for grid setup =    6.198 sec

--------------------
COSX GRID GENERATION
--------------------

GRIDX 1
-------
General Integration Accuracy     IntAcc      ... 4.020
Radial Grid Type                 RadialGrid  ... OptM3 with GC (2021)
Angular Grid (max. ang.)         AngularGrid ... 2 (Lebedev-110)
Angular grid pruning method      GridPruning ... 4 (adaptive)
Weight generation scheme         WeightScheme... Becke
Basis function cutoff            BFCut       ... 1.0000e-12
Integration weight cutoff        WCut        ... 1.0000e-14
Angular grids for H and He will be reduced by one unit
Partially contracted basis set               ... on
Rotationally invariant grid construction     ... off

Total number of grid points                  ...    49998
Total number of batches                      ...      803
Average number of points per batch           ...       62
Average number of grid points per atom       ...     1389
UseSFitting                                  ... on

GRIDX 2
-------
General Integration Accuracy     IntAcc      ... 4.338
Radial Grid Type                 RadialGrid  ... OptM3 with GC (2021)
Angular Grid (max. ang.)         AngularGrid ... 3 (Lebedev-194)
Angular grid pruning method      GridPruning ... 4 (adaptive)
Weight generation scheme         WeightScheme... Becke
Basis function cutoff            BFCut       ... 1.0000e-12
Integration weight cutoff        WCut        ... 1.0000e-14
Angular grids for H and He will be reduced by one unit
Partially contracted basis set               ... on
Rotationally invariant grid construction     ... off

Total number of grid points                  ...   109859
Total number of batches                      ...     1734
Average number of points per batch           ...       63
Average number of grid points per atom       ...     3052
UseSFitting                                  ... on

GRIDX 3
-------
General Integration Accuracy     IntAcc      ... 4.871
Radial Grid Type                 RadialGrid  ... OptM3 with GC (2021)
Angular Grid (max. ang.)         AngularGrid ... 4 (Lebedev-302)
Angular grid pruning method      GridPruning ... 4 (adaptive)
Weight generation scheme         WeightScheme... Becke
Basis function cutoff            BFCut       ... 1.0000e-12
Integration weight cutoff        WCut        ... 1.0000e-14
Angular grids for H and He will be reduced by one unit
Partially contracted basis set               ... on
Rotationally invariant grid construction     ... off

Total number of grid points                  ...   202846
Total number of batches                      ...     3186
Average number of points per batch           ...       63
Average number of grid points per atom       ...     5635
UseSFitting                                  ... on

Time for X-Grid setup             =    4.778 sec

--------------
SCF ITERATIONS
--------------
ITER       Energy         Delta-E        Max-DP      RMS-DP      [F,P]     Damp
               ***  Starting incremental Fock matrix formation  ***
  0   -936.3635032694   0.000000000000 0.04543751  0.00102632  0.2357516 0.8500
  1   -936.4719850841  -0.108481814656 0.04032556  0.00092903  0.1581290 0.8500
                               ***Turning on DIIS***
  2   -936.5436094495  -0.071624365407 0.02849255  0.00072817  0.0958686 0.8500
  3   -936.5899276845  -0.046318234994 0.01362220  0.00049768  0.0640293 0.8500
  4   -936.6244736689  -0.034545984407 0.01176927  0.00037744  0.0491613 0.8500
  5   -936.6511348987  -0.026661229785 0.01036471  0.00030528  0.0403567 0.8500
  6   -936.6727330328  -0.021598134073 0.00910344  0.00025508  0.0338825 0.8500
  7   -936.6906132317  -0.017880198907 0.05322850  0.00144579  0.0286405 0.0000
  8   -936.7855005175  -0.094887285779 0.01418970  0.00011661  0.0176541 0.0000
  9   -936.7855829290  -0.000082411536 0.00559154  0.00004631  0.0161269 0.0000
 10   -936.7858571066  -0.000274177634 0.00127043  0.00001576  0.0045356 0.0000
 11   -936.7858811873  -0.000024080671 0.00049953  0.00000606  0.0014245 0.0000
                      *** Initiating the SOSCF procedure ***
                           *** Shutting down DIIS ***
                      *** Re-Reading the Fockian *** 
                      *** Removing any level shift *** 
ITER      Energy       Delta-E        Grad      Rot      Max-DP    RMS-DP
 12   -936.78588359  -0.0000024075  0.000057  0.000057  0.000106  0.000002
               *** Restarting incremental Fock matrix formation ***
 13   -936.78586167   0.0000219249  0.000033  0.000253  0.000082  0.000003
 14   -936.78586177  -0.0000000996  0.000029  0.000179  0.000082  0.000002
 15   -936.78586174   0.0000000283  0.000056  0.000119  0.000068  0.000001
 16   -936.78586179  -0.0000000443  0.000011  0.000041  0.000031  0.000001
 17   -936.78586178   0.0000000033  0.000014  0.000029  0.000022  0.000000
 18   -936.78586179  -0.0000000052  0.000001  0.000005  0.000008  0.000000
 19   -936.78586179   0.0000000006  0.000002  0.000004  0.000005  0.000000
                  ***Gradient check signals convergence***
              ***Rediagonalizing the Fockian in SOSCF/NRSCF***

               *****************************************************
               *                     SUCCESS                       *
               *           SCF CONVERGED AFTER  20 CYCLES          *
               *****************************************************

Old exchange energy                            =    -25.595942374 Eh
New exchange energy                            =    -25.595925314 Eh
Exchange energy change after final integration =      0.000017060 Eh
Total energy after final integration           =   -936.785844728 Eh
Final COS-X integration done in                =    12.641 sec

----------------
TOTAL SCF ENERGY
----------------

Total Energy       :         -936.78584473 Eh          -25491.23878 eV

Components:
Nuclear Repulsion  :         1621.82707243 Eh           44132.15828 eV
Electronic Energy  :        -2558.61291716 Eh          -69623.39706 eV
One Electron Energy:        -4488.37276893 Eh         -122134.83226 eV
Two Electron Energy:         1929.75985178 Eh           52511.43520 eV
Max COSX asymmetry :            0.00000059 Eh               0.00002 eV

Virial components:
Potential Energy   :        -1863.75020980 Eh          -50715.22152 eV
Kinetic Energy     :          926.96436507 Eh           25223.98274 eV
Virial Ratio       :            2.01059532


DFT components:
N(Alpha)           :       77.000003900395 electrons
N(Beta)            :       77.000003900395 electrons
N(Total)           :      154.000007800791 electrons
E(X)               :     -101.718135962699 Eh       
E(C)               :       -6.159655556401 Eh       
E(XC)              :     -107.877791519100 Eh       
DFET-embed. en.    :        0.000000000000 Eh       

---------------
SCF CONVERGENCE
---------------

  Last Energy change         ...   -5.7787e-10  Tolerance :   1.0000e-09
  Last MAX-Density change    ...    3.9968e-15  Tolerance :   1.0000e-08
  Last RMS-Density change    ...    4.4505e-17  Tolerance :   1.0000e-09
  Last Orbital Gradient      ...    3.1554e-07  Tolerance :   2.0000e-06
  Last Orbital Rotation      ...    1.5291e-06  Tolerance :   2.0000e-06

             **** THE GBW FILE WAS UPDATED (NC_OH_4.gbw) ****
             **** DENSITY NC_OH_4.scfp WAS UPDATED ****
             **** ENERGY FILE WAS UPDATED (NC_OH_4.en.tmp) ****
             **** THE GBW FILE WAS UPDATED (NC_OH_4.gbw) ****
             **** DENSITY NC_OH_4.scfp WAS UPDATED ****
----------------
ORBITAL ENERGIES
----------------

  NO   OCC          E(Eh)            E(eV) 
   0   2.0000     -19.181217      -521.9475 
   1   2.0000     -14.314218      -389.5097 
   2   2.0000     -10.259594      -279.1777 
   3   2.0000     -10.231761      -278.4204 
   4   2.0000     -10.228757      -278.3386 
   5   2.0000     -10.216517      -278.0056 
   6   2.0000     -10.214122      -277.9404 
   7   2.0000     -10.212634      -277.8999 
   8   2.0000     -10.212007      -277.8828 
   9   2.0000     -10.208225      -277.7799 
  10   2.0000     -10.207880      -277.7705 
  11   2.0000     -10.206449      -277.7316 
  12   2.0000     -10.206142      -277.7232 
  13   2.0000     -10.202978      -277.6372 
  14   2.0000     -10.202459      -277.6230 
  15   2.0000     -10.201304      -277.5916 
  16   2.0000     -10.200460      -277.5686 
  17   2.0000     -10.200284      -277.5638 
  18   2.0000     -10.199639      -277.5463 
  19   2.0000     -10.199161      -277.5333 
  20   2.0000     -10.199054      -277.5304 
  21   2.0000     -10.198059      -277.5033 
  22   2.0000     -10.189291      -277.2647 
  23   2.0000      -1.065088       -28.9825 
  24   2.0000      -0.894043       -24.3282 
  25   2.0000      -0.881731       -23.9931 
  26   2.0000      -0.858866       -23.3709 
  27   2.0000      -0.833571       -22.6826 
  28   2.0000      -0.818899       -22.2834 
  29   2.0000      -0.788613       -21.4593 
  30   2.0000      -0.781553       -21.2671 
  31   2.0000      -0.753251       -20.4970 
  32   2.0000      -0.744102       -20.2480 
  33   2.0000      -0.730451       -19.8766 
  34   2.0000      -0.710222       -19.3261 
  35   2.0000      -0.656852       -17.8738 
  36   2.0000      -0.640005       -17.4154 
  37   2.0000      -0.635194       -17.2845 
  38   2.0000      -0.620192       -16.8763 
  39   2.0000      -0.598473       -16.2853 
  40   2.0000      -0.581443       -15.8219 
  41   2.0000      -0.566776       -15.4228 
  42   2.0000      -0.546529       -14.8718 
  43   2.0000      -0.530282       -14.4297 
  44   2.0000      -0.525723       -14.3056 
  45   2.0000      -0.512006       -13.9324 
  46   2.0000      -0.502211       -13.6659 
  47   2.0000      -0.494989       -13.4693 
  48   2.0000      -0.473716       -12.8905 
  49   2.0000      -0.458267       -12.4701 
  50   2.0000      -0.451064       -12.2741 
  51   2.0000      -0.449512       -12.2318 
  52   2.0000      -0.433895       -11.8069 
  53   2.0000      -0.429585       -11.6896 
  54   2.0000      -0.422731       -11.5031 
  55   2.0000      -0.418225       -11.3805 
  56   2.0000      -0.409930       -11.1548 
  57   2.0000      -0.405898       -11.0450 
  58   2.0000      -0.402292       -10.9469 
  59   2.0000      -0.397765       -10.8237 
  60   2.0000      -0.384625       -10.4662 
  61   2.0000      -0.382174       -10.3995 
  62   2.0000      -0.375172       -10.2090 
  63   2.0000      -0.364432        -9.9167 
  64   2.0000      -0.360639        -9.8135 
  65   2.0000      -0.353173        -9.6103 
  66   2.0000      -0.347092        -9.4449 
  67   2.0000      -0.341796        -9.3007 
  68   2.0000      -0.329172        -8.9572 
  69   2.0000      -0.323613        -8.8060 
  70   2.0000      -0.320818        -8.7299 
  71   2.0000      -0.296604        -8.0710 
  72   2.0000      -0.277853        -7.5608 
  73   2.0000      -0.266704        -7.2574 
  74   2.0000      -0.243507        -6.6262 
  75   2.0000      -0.237369        -6.4591 
  76   2.0000      -0.196785        -5.3548 
  77   0.0000      -0.090354        -2.4587 
  78   0.0000      -0.050594        -1.3767 
  79   0.0000      -0.039480        -1.0743 
  80   0.0000      -0.018215        -0.4957 
  81   0.0000       0.004312         0.1173 
  82   0.0000       0.021341         0.5807 
  83   0.0000       0.026676         0.7259 
  84   0.0000       0.034789         0.9466 
  85   0.0000       0.058745         1.5985 
  86   0.0000       0.059841         1.6284 
  87   0.0000       0.065706         1.7879 
  88   0.0000       0.072196         1.9646 
  89   0.0000       0.082777         2.2525 
  90   0.0000       0.090992         2.4760 
  91   0.0000       0.099668         2.7121 
  92   0.0000       0.100158         2.7254 
  93   0.0000       0.114848         3.1252 
  94   0.0000       0.119011         3.2385 
  95   0.0000       0.121472         3.3054 
  96   0.0000       0.143874         3.9150 
  97   0.0000       0.157718         4.2917 
  98   0.0000       0.161681         4.3996 
  99   0.0000       0.175552         4.7770 
 100   0.0000       0.188844         5.1387 
 101   0.0000       0.205786         5.5997 
 102   0.0000       0.217066         5.9067 
 103   0.0000       0.225492         6.1359 
 104   0.0000       0.228938         6.2297 
 105   0.0000       0.232764         6.3338 
 106   0.0000       0.238955         6.5023 
 107   0.0000       0.248039         6.7495 
 108   0.0000       0.253420         6.8959 
 109   0.0000       0.264684         7.2024 
 110   0.0000       0.267977         7.2920 
 111   0.0000       0.278291         7.5727 
 112   0.0000       0.291229         7.9247 
 113   0.0000       0.293276         7.9804 
 114   0.0000       0.308957         8.4072 
 115   0.0000       0.310370         8.4456 
 116   0.0000       0.318844         8.6762 
 117   0.0000       0.320891         8.7319 
 118   0.0000       0.329832         8.9752 
 119   0.0000       0.332359         9.0440 
 120   0.0000       0.338512         9.2114 
 121   0.0000       0.347260         9.4494 
 122   0.0000       0.353263         9.6128 
 123   0.0000       0.362443         9.8626 
 124   0.0000       0.371198        10.1008 
 125   0.0000       0.375038        10.2053 
 126   0.0000       0.384572        10.4647 
 127   0.0000       0.398531        10.8446 
 128   0.0000       0.403234        10.9726 
 129   0.0000       0.412857        11.2344 
 130   0.0000       0.422821        11.5055 
 131   0.0000       0.428436        11.6583 
 132   0.0000       0.441841        12.0231 
 133   0.0000       0.442077        12.0295 
 134   0.0000       0.448753        12.2112 
 135   0.0000       0.453316        12.3354 
 136   0.0000       0.464286        12.6339 
 137   0.0000       0.470683        12.8079 
 138   0.0000       0.472299        12.8519 
 139   0.0000       0.475222        12.9315 
 140   0.0000       0.478730        13.0269 
 141   0.0000       0.487936        13.2774 
 142   0.0000       0.490473        13.3464 
 143   0.0000       0.493412        13.4264 
 144   0.0000       0.502214        13.6659 
 145   0.0000       0.506690        13.7877 
 146   0.0000       0.512036        13.9332 
 147   0.0000       0.515403        14.0248 
 148   0.0000       0.524867        14.2824 
 149   0.0000       0.540343        14.7035 
 150   0.0000       0.544053        14.8044 
 151   0.0000       0.554596        15.0913 
 152   0.0000       0.561121        15.2689 
 153   0.0000       0.563362        15.3299 
 154   0.0000       0.570802        15.5323 
 155   0.0000       0.584821        15.9138 
 156   0.0000       0.588954        16.0263 
 157   0.0000       0.593440        16.1483 
 158   0.0000       0.599750        16.3200 
 159   0.0000       0.606925        16.5153 
 160   0.0000       0.618787        16.8381 
 161   0.0000       0.625419        17.0185 
 162   0.0000       0.631847        17.1934 
 163   0.0000       0.633998        17.2520 
 164   0.0000       0.636303        17.3147 
 165   0.0000       0.638654        17.3787 
 166   0.0000       0.648249        17.6397 
 167   0.0000       0.649931        17.6855 
 168   0.0000       0.655143        17.8274 
 169   0.0000       0.660074        17.9615 
 170   0.0000       0.665092        18.0981 
 171   0.0000       0.668574        18.1928 
 172   0.0000       0.675142        18.3716 
 173   0.0000       0.681793        18.5525 
 174   0.0000       0.687038        18.6953 
 175   0.0000       0.690471        18.7887 
 176   0.0000       0.703878        19.1535 
 177   0.0000       0.704344        19.1662 
 178   0.0000       0.719594        19.5811 
 179   0.0000       0.726022        19.7561 
 180   0.0000       0.730584        19.8802 
 181   0.0000       0.735041        20.0015 
 182   0.0000       0.741424        20.1752 
 183   0.0000       0.744431        20.2570 
 184   0.0000       0.751831        20.4584 
 185   0.0000       0.759612        20.6701 
 186   0.0000       0.771349        20.9895 
 187   0.0000       0.780123        21.2282 
 188   0.0000       0.783916        21.3314 
 189   0.0000       0.792466        21.5641 
 190   0.0000       0.806167        21.9369 
 191   0.0000       0.812240        22.1022 
 192   0.0000       0.831017        22.6131 
 193   0.0000       0.834959        22.7204 
 194   0.0000       0.844384        22.9769 
 195   0.0000       0.852060        23.1857 
 196   0.0000       0.854974        23.2650 
 197   0.0000       0.878868        23.9152 
 198   0.0000       0.887986        24.1633 
 199   0.0000       0.895714        24.3736 
 200   0.0000       0.913102        24.8468 
 201   0.0000       0.931865        25.3573 
 202   0.0000       0.941810        25.6279 
 203   0.0000       0.961559        26.1654 
 204   0.0000       0.971512        26.4362 
 205   0.0000       0.997261        27.1369 
 206   0.0000       1.002976        27.2924 
 207   0.0000       1.012680        27.5564 
 208   0.0000       1.029850        28.0237 
 209   0.0000       1.059369        28.8269 
 210   0.0000       1.068367        29.0718 
 211   0.0000       1.095891        29.8207 
 212   0.0000       1.101986        29.9866 
 213   0.0000       1.109505        30.1912 
 214   0.0000       1.122563        30.5465 
 215   0.0000       1.127643        30.6847 
 216   0.0000       1.148075        31.2407 
 217   0.0000       1.154218        31.4079 
 218   0.0000       1.178388        32.0656 
 219   0.0000       1.185192        32.2507 
 220   0.0000       1.199682        32.6450 
 221   0.0000       1.206691        32.8357 
 222   0.0000       1.212181        32.9851 
 223   0.0000       1.227490        33.4017 
 224   0.0000       1.236935        33.6587 
 225   0.0000       1.239994        33.7420 
 226   0.0000       1.244086        33.8533 
 227   0.0000       1.254425        34.1346 
 228   0.0000       1.259662        34.2771 
 229   0.0000       1.264673        34.4135 
 230   0.0000       1.279158        34.8076 
 231   0.0000       1.284024        34.9401 
 232   0.0000       1.288913        35.0731 
 233   0.0000       1.296990        35.2929 
 234   0.0000       1.322250        35.9803 
 235   0.0000       1.332335        36.2547 
 236   0.0000       1.334419        36.3114 
 237   0.0000       1.342242        36.5243 
 238   0.0000       1.346117        36.6297 
 239   0.0000       1.361715        37.0542 
 240   0.0000       1.364326        37.1252 
 241   0.0000       1.370530        37.2940 
 242   0.0000       1.384474        37.6735 
 243   0.0000       1.389879        37.8205 
 244   0.0000       1.407048        38.2877 
 245   0.0000       1.432155        38.9709 
 246   0.0000       1.477952        40.2171 
 247   0.0000       1.495304        40.6893 
 248   0.0000       1.503786        40.9201 
 249   0.0000       1.508492        41.0482 
 250   0.0000       1.523483        41.4561 
 251   0.0000       1.598413        43.4950 
 252   0.0000       1.618162        44.0324 
 253   0.0000       1.622490        44.1502 
 254   0.0000       1.626469        44.2585 
 255   0.0000       1.644771        44.7565 
 256   0.0000       1.651310        44.9344 
 257   0.0000       1.653065        44.9822 
 258   0.0000       1.660244        45.1775 
 259   0.0000       1.669772        45.4368 
 260   0.0000       1.678814        45.6829 
 261   0.0000       1.682657        45.7874 
 262   0.0000       1.685682        45.8697 
 263   0.0000       1.690487        46.0005 
 264   0.0000       1.707979        46.4765 
 265   0.0000       1.715595        46.6837 
 266   0.0000       1.721840        46.8536 
 267   0.0000       1.730133        47.0793 
 268   0.0000       1.735951        47.2376 
 269   0.0000       1.739382        47.3310 
 270   0.0000       1.746569        47.5266 
 271   0.0000       1.755564        47.7713 
 272   0.0000       1.759630        47.8820 
 273   0.0000       1.760522        47.9062 
 274   0.0000       1.768677        48.1281 
 275   0.0000       1.773419        48.2572 
 276   0.0000       1.777370        48.3647 
 277   0.0000       1.781457        48.4759 
 278   0.0000       1.797308        48.9072 
 279   0.0000       1.799369        48.9633 
 280   0.0000       1.812666        49.3252 
 281   0.0000       1.838185        50.0196 
 282   0.0000       1.843555        50.1657 
 283   0.0000       1.851530        50.3827 
 284   0.0000       1.863869        50.7185 
 285   0.0000       1.883368        51.2490 
 286   0.0000       1.886409        51.3318 
 287   0.0000       1.900711        51.7210 
 288   0.0000       1.915628        52.1269 
 289   0.0000       1.921976        52.2996 
 290   0.0000       1.937507        52.7222 
 291   0.0000       1.952397        53.1274 
 292   0.0000       1.958636        53.2972 
 293   0.0000       1.968924        53.5771 
 294   0.0000       1.989554        54.1385 
 295   0.0000       1.992440        54.2170 
 296   0.0000       2.002334        54.4863 
 297   0.0000       2.014865        54.8273 
 298   0.0000       2.034885        55.3720 
 299   0.0000       2.041831        55.5610 
 300   0.0000       2.048708        55.7482 
 301   0.0000       2.052875        55.8616 
 302   0.0000       2.063032        56.1380 
 303   0.0000       2.074419        56.4478 
 304   0.0000       2.084625        56.7255 
 305   0.0000       2.095475        57.0208 
 306   0.0000       2.097809        57.0843 
 307   0.0000       2.129813        57.9552 
 308   0.0000       2.134291        58.0770 
 309   0.0000       2.146103        58.3984 
 310   0.0000       2.152832        58.5815 
 311   0.0000       2.157006        58.6951 
 312   0.0000       2.182213        59.3810 
 313   0.0000       2.189004        59.5658 
 314   0.0000       2.198460        59.8231 
 315   0.0000       2.208983        60.1095 
 316   0.0000       2.215459        60.2857 
 317   0.0000       2.216430        60.3121 
 318   0.0000       2.233841        60.7859 
 319   0.0000       2.248060        61.1728 
 320   0.0000       2.252608        61.2966 
 321   0.0000       2.254108        61.3374 
 322   0.0000       2.259246        61.4772 
 323   0.0000       2.265253        61.6407 
 324   0.0000       2.281530        62.0836 
 325   0.0000       2.290991        62.3410 
 326   0.0000       2.296212        62.4831 
 327   0.0000       2.308706        62.8231 
 328   0.0000       2.312734        62.9327 
 329   0.0000       2.323588        63.2280 
 330   0.0000       2.342342        63.7384 
 331   0.0000       2.360434        64.2307 
 332   0.0000       2.368052        64.4380 
 333   0.0000       2.382502        64.8312 
 334   0.0000       2.402586        65.3777 
 335   0.0000       2.416788        65.7641 
 336   0.0000       2.457158        66.8627 
 337   0.0000       2.460139        66.9438 
 338   0.0000       2.487737        67.6948 
 339   0.0000       2.499162        68.0056 
 340   0.0000       2.513984        68.4090 
 341   0.0000       2.522745        68.6474 
 342   0.0000       2.559523        69.6482 
 343   0.0000       2.563039        69.7438 
 344   0.0000       2.573160        70.0193 
 345   0.0000       2.580841        70.2282 
 346   0.0000       2.603131        70.8348 
 347   0.0000       2.633181        71.6525 
 348   0.0000       2.638009        71.7839 
 349   0.0000       2.655899        72.2707 
 350   0.0000       2.672308        72.7172 
 351   0.0000       2.674770        72.7842 
 352   0.0000       2.684895        73.0597 
 353   0.0000       2.699730        73.4634 
 354   0.0000       2.724701        74.1429 
 355   0.0000       2.740766        74.5800 
 356   0.0000       2.762193        75.1631 
 357   0.0000       2.763613        75.2017 
 358   0.0000       2.773823        75.4796 
 359   0.0000       2.798056        76.1390 
 360   0.0000       2.817849        76.6776 
 361   0.0000       2.839528        77.2675 
 362   0.0000       2.866191        77.9930 
 363   0.0000       2.889234        78.6201 
 364   0.0000       2.899426        78.8974 
 365   0.0000       2.906650        79.0940 
 366   0.0000       2.936733        79.9126 
 367   0.0000       2.955352        80.4192 
 368   0.0000       2.966980        80.7356 
 369   0.0000       2.973082        80.9017 
 370   0.0000       2.994364        81.4808 
 371   0.0000       2.998899        81.6042 
 372   0.0000       3.003315        81.7244 
 373   0.0000       3.024561        82.3025 
 374   0.0000       3.097206        84.2793 
 375   0.0000       3.134596        85.2967 
 376   0.0000       3.178537        86.4924 
 377   0.0000       3.234739        88.0217 
 378   0.0000       3.244567        88.2892 
 379   0.0000       3.260238        88.7156 
 380   0.0000       3.369664        91.6932 
 381   0.0000       3.400883        92.5427 
 382   0.0000       3.460789        94.1729 
 383   0.0000       3.511584        95.5551 
 384   0.0000       3.576770        97.3289 
 385   0.0000       3.629175        98.7549 
 386   0.0000       3.774785       102.7171 

                    ********************************
                    * MULLIKEN POPULATION ANALYSIS *
                    ********************************

-----------------------
MULLIKEN ATOMIC CHARGES
-----------------------
   0 C :    0.050971
   1 C :   -0.019259
   2 C :   -0.031439
   3 C :    0.071357
   4 C :   -0.009858
   5 C :   -0.031697
   6 C :    0.058065
   7 C :    0.076252
   8 C :   -0.040264
   9 C :   -0.027840
  10 C :    0.064178
  11 C :   -0.005729
  12 C :   -0.044964
  13 C :    0.082738
  14 C :    0.055348
  15 C :    0.065131
  16 C :   -0.007936
  17 C :   -0.038166
  18 C :   -0.128086
  19 C :    0.080670
  20 C :   -0.108180
  21 O :   -0.188428
  22 N :    0.024752
  23 H :   -0.024174
  24 H :   -0.029372
  25 H :   -0.030720
  26 H :   -0.027674
  27 H :   -0.033671
  28 H :   -0.030628
  29 H :   -0.029118
  30 H :   -0.029574
  31 H :    0.037089
  32 H :    0.001778
  33 H :    0.062453
  34 H :    0.000729
  35 H :    0.185265
Sum of atomic charges:    0.0000000

--------------------------------
MULLIKEN REDUCED ORBITAL CHARGES
--------------------------------
  0 C s       :     3.108881  s :     3.108881
      pz      :     1.017861  p :     2.799572
      px      :     0.836162
      py      :     0.945549
      dz2     :     0.003117  d :     0.040576
      dxz     :     0.005670
      dyz     :     0.005899
      dx2y2   :     0.013009
      dxy     :     0.012882
  1 C s       :     3.224843  s :     3.224843
      pz      :     0.973660  p :     2.759411
      px      :     0.967480
      py      :     0.818272
      dz2     :     0.002586  d :     0.035005
      dxz     :     0.007131
      dyz     :     0.002206
      dx2y2   :     0.012809
      dxy     :     0.010273
  2 C s       :     3.244970  s :     3.244970
      pz      :     0.998006  p :     2.751876
      px      :     0.811567
      py      :     0.942302
      dz2     :     0.002579  d :     0.034593
      dxz     :     0.003603
      dyz     :     0.005125
      dx2y2   :     0.011615
      dxy     :     0.011671
  3 C s       :     3.113357  s :     3.113357
      pz      :     0.957853  p :     2.772335
      px      :     0.961753
      py      :     0.852729
      dz2     :     0.003186  d :     0.042951
      dxz     :     0.005925
      dyz     :     0.006925
      dx2y2   :     0.013210
      dxy     :     0.013705
  4 C s       :     3.230333  s :     3.230333
      pz      :     0.995499  p :     2.744856
      px      :     0.841161
      py      :     0.908196
      dz2     :     0.002583  d :     0.034668
      dxz     :     0.002677
      dyz     :     0.006150
      dx2y2   :     0.010440
      dxy     :     0.012818
  5 C s       :     3.237804  s :     3.237804
      pz      :     0.973238  p :     2.758998
      px      :     0.878261
      py      :     0.907498
      dz2     :     0.002569  d :     0.034896
      dxz     :     0.002911
      dyz     :     0.006384
      dx2y2   :     0.010498
      dxy     :     0.012534
  6 C s       :     3.146843  s :     3.146843
      pz      :     0.996939  p :     2.754456
      px      :     0.895469
      py      :     0.862047
      dz2     :     0.003170  d :     0.040636
      dxz     :     0.005585
[...]
     92       0.003678   0.021726  -0.000050  -0.001644   0.059010   0.000021
     93      -0.100742  -0.762290  -0.009492  -0.008717   0.294256   0.000078
     94      -0.056772  -0.429346  -0.007663  -0.004933   0.167798   0.000067
     95       0.029345   0.221926   0.003305   0.002493  -0.083934  -0.000006
     96       0.042754  -0.003705   0.004146  -0.171534  -0.005023  -0.000994
     97       0.019136  -0.001579   0.002069  -0.086863  -0.002571  -0.001254
     98      -0.018887   0.001594  -0.001861   0.076378   0.002224   0.000036
     99      -0.020909  -0.137217  -0.121650  -0.000755   0.031308   0.000041
    100      -0.014044  -0.092297  -0.080575  -0.000504   0.021831   0.000050
    101       0.007646   0.050367   0.043382   0.000288  -0.012137  -0.000012
    102      -0.059914   0.006973   0.000553  -0.006621  -0.000291  -0.002602
    103      -0.036364   0.004222   0.000345  -0.004366  -0.000195  -0.008971
    104       0.034842  -0.004044  -0.000340   0.004691   0.000195   0.005379
    105       0.000901  -0.000118   0.000042  -0.000422   0.000017  -0.081870
    106       0.000359  -0.000103   0.000102   0.000450   0.000094  -0.856543
    107      -0.000495   0.000097  -0.000072  -0.000203  -0.000067   0.505525


-----------
IR SPECTRUM
-----------

 Mode   freq       eps      Int      T**2         TX        TY        TZ
       cm**-1   L/(mol*cm) km/mol    a.u.
----------------------------------------------------------------------------
  6:     25.01   0.000024    0.12  0.000297  (-0.000691 -0.012998  0.011307)
  7:     54.63   0.000636    3.21  0.003634  (-0.023434  0.039181  0.039362)
  8:     66.81   0.001275    6.44  0.005955  ( 0.032994  0.022730  0.065952)
  9:     67.58   0.000276    1.39  0.001273  (-0.005938 -0.026189  0.023491)
 10:     97.09   0.001665    8.42  0.005353  ( 0.023240  0.061737  0.031644)
 11:    101.23   0.000025    0.12  0.000076  (-0.003407  0.002559 -0.007596)
 12:    119.86   0.001124    5.68  0.002926  ( 0.011373 -0.033404 -0.040994)
 13:    148.32   0.001088    5.50  0.002288  ( 0.003235 -0.027865 -0.038750)
 14:    198.19   0.001120    5.66  0.001763  (-0.016625 -0.037875 -0.007223)
 15:    221.19   0.000611    3.09  0.000862  (-0.000182 -0.008279 -0.028175)
 16:    222.68   0.001056    5.33  0.001479  (-0.000905  0.004708  0.038163)
 17:    257.09   0.000153    0.77  0.000185  ( 0.005073  0.009211 -0.008634)
 18:    269.41   0.000248    1.26  0.000288  (-0.002367  0.015879  0.005470)
 19:    291.55   0.002434   12.30  0.002605  (-0.014280 -0.028707 -0.039714)
 20:    312.34   0.001581    7.99  0.001580  ( 0.012391 -0.030990 -0.021588)
 21:    335.50   0.012278   62.05  0.011421  ( 0.036583  0.045687  0.089415)
 22:    355.73   0.001206    6.10  0.001058  (-0.006641  0.023475  0.021517)
 23:    378.59   0.003756   18.98  0.003096  (-0.009842 -0.025370 -0.048531)
 24:    420.16   0.001514    7.65  0.001125  (-0.018473  0.027971 -0.000947)
 25:    442.24   0.001203    6.08  0.000849  (-0.019410  0.021289 -0.004324)
 26:    453.19   0.000237    1.20  0.000163  ( 0.010737 -0.006197  0.003056)
 27:    494.21   0.000506    2.56  0.000320  ( 0.001232 -0.000249  0.017836)
 28:    510.44   0.000685    3.46  0.000419  ( 0.009875 -0.016856  0.006116)
 29:    515.53   0.000248    1.25  0.000150  ( 0.007976  0.007759  0.005101)
 30:    528.23   0.000097    0.49  0.000057  ( 0.003349 -0.005947  0.003241)
 31:    532.49   0.001679    8.48  0.000984  ( 0.007904 -0.029912  0.005169)
 32:    563.12   0.000261    1.32  0.000144  ( 0.006713 -0.009930 -0.000887)
 33:    566.43   0.000137    0.69  0.000076  (-0.004215  0.007537 -0.000994)
 34:    580.19   0.000424    2.15  0.000228  ( 0.010634 -0.005204 -0.009389)
 35:    621.12   0.003185   16.10  0.001600  (-0.018167  0.035640  0.000069)
 36:    632.12   0.000780    3.94  0.000385  (-0.010680  0.016453 -0.000680)
 37:    676.86   0.000018    0.09  0.000008  (-0.001174  0.001778  0.001889)
 38:    702.43   0.000120    0.61  0.000054  (-0.004699  0.005509  0.001043)
 39:    719.21   0.001123    5.67  0.000487  (-0.002014  0.004572 -0.021497)
 40:    756.47   0.002744   13.87  0.001132  (-0.003747  0.005970  0.032896)
 41:    764.61   0.000955    4.83  0.000390  (-0.011453  0.013681 -0.008457)
 42:    783.25   0.000190    0.96  0.000076  ( 0.006167 -0.005678  0.002338)
 43:    815.41   0.009263   46.81  0.003545  ( 0.028403 -0.052267  0.002525)
 44:    818.05   0.000212    1.07  0.000081  (-0.001693  0.005415  0.006973)
 45:    832.01   0.002157   10.90  0.000809  ( 0.004821 -0.009700  0.026297)
 46:    852.39   0.000648    3.28  0.000237  (-0.009533 -0.000946 -0.012065)
 47:    859.88   0.001309    6.61  0.000475  (-0.013849  0.016740  0.001711)
 48:    877.46   0.005943   30.03  0.002114  ( 0.010022 -0.014938  0.042308)
 49:    885.08   0.000647    3.27  0.000228  ( 0.008421 -0.003069  0.012158)
 50:    887.87   0.006785   34.29  0.002385  ( 0.009260 -0.013382 -0.046042)
 51:    940.67   0.000490    2.48  0.000163  ( 0.004517 -0.002631  0.011633)
 52:    948.27   0.006870   34.72  0.002261  (-0.019796  0.002578 -0.043156)
 53:    983.14   0.005213   26.35  0.001655  (-0.008075  0.028898  0.027468)
 54:    988.34   0.000760    3.84  0.000240  (-0.002434  0.001458 -0.015226)
 55:    993.22   0.000144    0.73  0.000045  ( 0.005447 -0.000887  0.003838)
 56:    998.49   0.000659    3.33  0.000206  (-0.008678  0.011429  0.000096)
 57:   1002.25   0.001496    7.56  0.000466  ( 0.006438  0.000284  0.020599)
 58:   1012.38   0.000158    0.80  0.000049  ( 0.001537 -0.006762  0.000841)
 59:   1016.34   0.000004    0.02  0.000001  ( 0.000263  0.000911  0.000422)
 60:   1039.59   0.000060    0.30  0.000018  (-0.003604 -0.002230  0.000089)
 61:   1117.92   0.001796    9.07  0.000501  ( 0.007626 -0.020959  0.001947)
 62:   1130.48   0.000144    0.73  0.000040  ( 0.005270 -0.003444 -0.000328)
 63:   1164.91   0.001508    7.62  0.000404  ( 0.001377  0.018674 -0.007312)
 64:   1181.32   0.000025    0.12  0.000006  (-0.001459  0.001154  0.001742)
 65:   1188.00   0.001836    9.28  0.000482  (-0.017476  0.013297 -0.000094)
 66:   1197.91   0.006453   32.61  0.001681  (-0.037060  0.017271 -0.003068)
 67:   1207.53   0.012868   65.03  0.003325  ( 0.049257 -0.029547  0.005108)
 68:   1227.53   0.075550  381.80  0.019206  ( 0.079929 -0.112374  0.013775)
 69:   1249.74   0.034845  176.09  0.008701  (-0.049639  0.078340 -0.009985)
 70:   1265.37   0.008929   45.12  0.002202  ( 0.023276 -0.040596  0.003513)
 71:   1269.46   0.000862    4.35  0.000212  (-0.003134 -0.014187  0.000858)
 72:   1277.17   0.000540    2.73  0.000132  (-0.008572  0.007008 -0.003049)
 73:   1282.39   0.018672   94.36  0.004544  ( 0.049800 -0.045092  0.005507)
 74:   1327.11   0.001638    8.28  0.000385  (-0.009863  0.016879 -0.001714)
 75:   1333.87   0.009368   47.34  0.002192  ( 0.027313 -0.037916  0.002855)
 76:   1342.42   0.001453    7.34  0.000338  (-0.017813 -0.001227  0.004357)
 77:   1369.10   0.000211    1.07  0.000048  ( 0.006281 -0.002926 -0.000378)
 78:   1377.72   0.013213   66.77  0.002993  ( 0.043292 -0.033421  0.001269)
 79:   1406.96   0.000843    4.26  0.000187  ( 0.003972 -0.013083  0.000275)
 80:   1411.05   0.001585    8.01  0.000351  (-0.013078  0.013354  0.001083)
 81:   1425.10   0.001890    9.55  0.000414  ( 0.001594 -0.020132  0.002453)
 82:   1440.76   0.000752    3.80  0.000163  ( 0.007558 -0.010211  0.001179)
 83:   1466.73   0.001081    5.46  0.000230  ( 0.012411 -0.008707 -0.000405)
 84:   1503.35   0.000508    2.57  0.000105  (-0.007128 -0.007380  0.000333)
 85:   1536.02   0.000717    3.62  0.000146  (-0.011919  0.001816 -0.000500)
 86:   1546.16   0.003771   19.06  0.000761  (-0.011680  0.024963 -0.001282)
 87:   1574.65   0.003451   17.44  0.000684  (-0.017537  0.019148 -0.003131)
 88:   1622.02   0.001161    5.87  0.000223  (-0.003236  0.014510 -0.001554)
 89:   1638.40   0.045254  228.69  0.008619  ( 0.051678 -0.076501  0.009825)
 90:   1656.95   0.008173   41.31  0.001539  (-0.002435  0.039034 -0.003129)
 91:   1663.73   0.022954  116.00  0.004305  (-0.036538  0.054031 -0.007145)
 92:   1675.62   0.000388    1.96  0.000072  (-0.002409 -0.008147 -0.000190)
 93:   1735.01   0.075994  384.04  0.013668  (-0.058913  0.099203 -0.018881)
 94:   2338.00   0.026821  135.54  0.003580  ( 0.037436 -0.046479  0.004261)
 95:   3147.46   0.002180   11.02  0.000216  ( 0.013621  0.000205 -0.005527)
 96:   3171.04   0.000243    1.23  0.000024  ( 0.003665 -0.003198  0.000516)
 97:   3173.08   0.000565    2.85  0.000056  (-0.003371  0.006634 -0.000424)
 98:   3174.36   0.001771    8.95  0.000174  (-0.013182  0.000018 -0.000592)
 99:   3174.71   0.003099   15.66  0.000305  ( 0.016539 -0.005518  0.000784)
100:   3177.95   0.001424    7.19  0.000140  ( 0.011776  0.001029  0.000256)
101:   3182.67   0.001632    8.25  0.000160  ( 0.006678 -0.010740  0.000250)
102:   3191.54   0.003777   19.09  0.000369  ( 0.006053  0.018229 -0.000584)
103:   3192.40   0.001313    6.63  0.000128  ( 0.003609 -0.010737 -0.000080)
104:   3197.70   0.002001   10.11  0.000195  ( 0.006774  0.012216 -0.000437)
105:   3215.05   0.002215   11.20  0.000215  ( 0.014382 -0.002824  0.000470)
106:   3217.37   0.002241   11.33  0.000217  (-0.014108  0.004275 -0.000307)
107:   3849.26   0.057064  288.38  0.004626  ( 0.021508 -0.061048  0.020899)

* The epsilon (eps) is given for a Dirac delta lineshape.
** The dipole moment derivative (T) already includes vibrational overlap.

The first frequency considered to be a vibration is 6
The total number of vibrations considered is 102


--------------------------
THERMOCHEMISTRY AT 298.15K
--------------------------

Temperature         ... 298.15 K
Pressure            ... 1.00 atm
Total Mass          ... 295.34 AMU

Throughout the following assumptions are being made:
  (1) The electronic state is orbitally nondegenerate
  (2) There are no thermally accessible electronically excited states
  (3) Hindered rotations indicated by low frequency modes are not
      treated as such but are treated as vibrations and this may
      cause some error
  (4) All equations used are the standard statistical mechanics
      equations for an ideal gas
  (5) All vibrations are strictly harmonic

freq.      25.01  E(vib)   ...       0.56 
freq.      54.63  E(vib)   ...       0.52 
freq.      66.81  E(vib)   ...       0.50 
freq.      67.58  E(vib)   ...       0.50 
freq.      97.09  E(vib)   ...       0.46 
freq.     101.23  E(vib)   ...       0.46 
freq.     119.86  E(vib)   ...       0.44 
freq.     148.32  E(vib)   ...       0.41 
freq.     198.19  E(vib)   ...       0.35 
freq.     221.19  E(vib)   ...       0.33 
freq.     222.68  E(vib)   ...       0.33 
freq.     257.09  E(vib)   ...       0.30 
freq.     269.41  E(vib)   ...       0.29 
freq.     291.55  E(vib)   ...       0.27 
freq.     312.34  E(vib)   ...       0.25 
freq.     335.50  E(vib)   ...       0.24 
freq.     355.73  E(vib)   ...       0.22 
freq.     378.59  E(vib)   ...       0.21 
freq.     420.16  E(vib)   ...       0.18 
freq.     442.24  E(vib)   ...       0.17 
freq.     453.19  E(vib)   ...       0.16 
freq.     494.21  E(vib)   ...       0.14 
freq.     510.44  E(vib)   ...       0.14 
freq.     515.53  E(vib)   ...       0.13 
freq.     528.23  E(vib)   ...       0.13 
freq.     532.49  E(vib)   ...       0.13 
freq.     563.12  E(vib)   ...       0.11 
freq.     566.43  E(vib)   ...       0.11 
freq.     580.19  E(vib)   ...       0.11 
freq.     621.12  E(vib)   ...       0.09 
freq.     632.12  E(vib)   ...       0.09 
freq.     676.86  E(vib)   ...       0.08 
freq.     702.43  E(vib)   ...       0.07 
freq.     719.21  E(vib)   ...       0.07 
freq.     756.47  E(vib)   ...       0.06 
freq.     764.61  E(vib)   ...       0.06 
freq.     783.25  E(vib)   ...       0.05 
freq.     815.41  E(vib)   ...       0.05 
freq.     818.05  E(vib)   ...       0.05 
freq.     832.01  E(vib)   ...       0.04 
freq.     852.39  E(vib)   ...       0.04 
freq.     859.88  E(vib)   ...       0.04 
freq.     877.46  E(vib)   ...       0.04 
freq.     885.08  E(vib)   ...       0.04 
freq.     887.87  E(vib)   ...       0.04 
freq.     940.67  E(vib)   ...       0.03 
freq.     948.27  E(vib)   ...       0.03 
freq.     983.14  E(vib)   ...       0.02 
freq.     988.34  E(vib)   ...       0.02 
freq.     993.22  E(vib)   ...       0.02 
freq.     998.49  E(vib)   ...       0.02 
freq.    1002.25  E(vib)   ...       0.02 
freq.    1012.38  E(vib)   ...       0.02 
freq.    1016.34  E(vib)   ...       0.02 
freq.    1039.59  E(vib)   ...       0.02 
freq.    1117.92  E(vib)   ...       0.01 
freq.    1130.48  E(vib)   ...       0.01 
freq.    1164.91  E(vib)   ...       0.01 
freq.    1181.32  E(vib)   ...       0.01 
freq.    1188.00  E(vib)   ...       0.01 
freq.    1197.91  E(vib)   ...       0.01 
freq.    1207.53  E(vib)   ...       0.01 
freq.    1227.53  E(vib)   ...       0.01 
freq.    1249.74  E(vib)   ...       0.01 
freq.    1265.37  E(vib)   ...       0.01 
freq.    1269.46  E(vib)   ...       0.01 
freq.    1277.17  E(vib)   ...       0.01 
freq.    1282.39  E(vib)   ...       0.01 
freq.    1327.11  E(vib)   ...       0.01 
freq.    1333.87  E(vib)   ...       0.01 
freq.    1342.42  E(vib)   ...       0.01 
freq.    1369.10  E(vib)   ...       0.01 
freq.    1377.72  E(vib)   ...       0.01 
freq.    1406.96  E(vib)   ...       0.00 
freq.    1411.05  E(vib)   ...       0.00 
freq.    1425.10  E(vib)   ...       0.00 
freq.    1440.76  E(vib)   ...       0.00 
freq.    1466.73  E(vib)   ...       0.00 
freq.    1503.35  E(vib)   ...       0.00 
freq.    1536.02  E(vib)   ...       0.00 
freq.    1546.16  E(vib)   ...       0.00 
freq.    1574.65  E(vib)   ...       0.00 
freq.    1622.02  E(vib)   ...       0.00 
freq.    1638.40  E(vib)   ...       0.00 
freq.    1656.95  E(vib)   ...       0.00 
freq.    1663.73  E(vib)   ...       0.00 
freq.    1675.62  E(vib)   ...       0.00 
freq.    1735.01  E(vib)   ...       0.00 
freq.    2338.00  E(vib)   ...       0.00 
freq.    3147.46  E(vib)   ...       0.00 
freq.    3171.04  E(vib)   ...       0.00 
freq.    3173.08  E(vib)   ...       0.00 
freq.    3174.36  E(vib)   ...       0.00 
freq.    3174.71  E(vib)   ...       0.00 
freq.    3177.95  E(vib)   ...       0.00 
freq.    3182.67  E(vib)   ...       0.00 
freq.    3191.54  E(vib)   ...       0.00 
freq.    3192.40  E(vib)   ...       0.00 
freq.    3197.70  E(vib)   ...       0.00 
freq.    3215.05  E(vib)   ...       0.00 
freq.    3217.37  E(vib)   ...       0.00 
freq.    3849.26  E(vib)   ...       0.00 

------------
INNER ENERGY
------------

The inner energy is: U= E(el) + E(ZPE) + E(vib) + E(rot) + E(trans)
    E(el)   - is the total energy from the electronic structure calculation
              = E(kin-el) + E(nuc-el) + E(el-el) + E(nuc-nuc)
    E(ZPE)  - the the zero temperature vibrational energy from the frequency calculation
    E(vib)  - the the finite temperature correction to E(ZPE) due to population
              of excited vibrational states
    E(rot)  - is the rotational thermal energy
    E(trans)- is the translational thermal energy

Summary of contributions to the inner energy U:
Electronic energy                ...   -936.78921607 Eh
Zero point energy                ...      0.27736907 Eh     174.05 kcal/mol
Thermal vibrational correction   ...      0.01511609 Eh       9.49 kcal/mol
Thermal rotational correction    ...      0.00141627 Eh       0.89 kcal/mol
Thermal translational correction ...      0.00141627 Eh       0.89 kcal/mol
-----------------------------------------------------------------------
Total thermal energy                   -936.49389837 Eh


Summary of corrections to the electronic energy:
(perhaps to be used in another calculation)
Total thermal correction                  0.01794863 Eh      11.26 kcal/mol
Non-thermal (ZPE) correction              0.27736907 Eh     174.05 kcal/mol
-----------------------------------------------------------------------
Total correction                          0.29531770 Eh     185.31 kcal/mol


--------
ENTHALPY
--------

The enthalpy is H = U + kB*T
                kB is Boltzmann's constant
Total free energy                 ...   -936.49389837 Eh 
Thermal Enthalpy correction       ...      0.00094421 Eh       0.59 kcal/mol
-----------------------------------------------------------------------
Total Enthalpy                    ...   -936.49295416 Eh


Note: Only C1 symmetry has been detected, increase convergence thresholds 
      if your molecule has a higher symmetry. Symmetry factor of 1.0 is   
      used for the rotational entropy correction. 
 

Note: Rotational entropy computed according to Herzberg 
Infrared and Raman Spectra, Chapter V,1, Van Nostrand Reinhold, 1945 
Point Group:  C1, Symmetry Number:   1  
Rotational constants in cm-1:     0.026135     0.003943     0.003432 

Vibrational entropy computed according to the QRRHO of S. Grimme
Chem.Eur.J. 2012 18 9955


-------
ENTROPY
-------

The entropy contributions are T*S = T*(S(el)+S(vib)+S(rot)+S(trans))
     S(el)   - electronic entropy
     S(vib)  - vibrational entropy
     S(rot)  - rotational entropy
     S(trans)- translational entropy
The entropies will be listed as multiplied by the temperature to get
units of energy

Electronic entropy                ...      0.00000000 Eh      0.00 kcal/mol
Vibrational entropy               ...      0.02605306 Eh     16.35 kcal/mol
Rotational entropy                ...      0.01652364 Eh     10.37 kcal/mol
Translational entropy             ...      0.02040501 Eh     12.80 kcal/mol
-----------------------------------------------------------------------
Final entropy term                ...      0.06298171 Eh     39.52 kcal/mol

In case the symmetry of your molecule has not been determined correctly
or in case you have a reason to use a different symmetry number we print 
out the resulting rotational entropy values for sn=1,12 :
 --------------------------------------------------------
|  sn= 1 | S(rot)=       0.01652364 Eh     10.37 kcal/mol|
|  sn= 2 | S(rot)=       0.01586918 Eh      9.96 kcal/mol|
|  sn= 3 | S(rot)=       0.01548635 Eh      9.72 kcal/mol|
|  sn= 4 | S(rot)=       0.01521473 Eh      9.55 kcal/mol|
|  sn= 5 | S(rot)=       0.01500404 Eh      9.42 kcal/mol|
|  sn= 6 | S(rot)=       0.01483189 Eh      9.31 kcal/mol|
|  sn= 7 | S(rot)=       0.01468635 Eh      9.22 kcal/mol|
|  sn= 8 | S(rot)=       0.01456027 Eh      9.14 kcal/mol|
|  sn= 9 | S(rot)=       0.01444906 Eh      9.07 kcal/mol|
|  sn=10 | S(rot)=       0.01434958 Eh      9.00 kcal/mol|
|  sn=11 | S(rot)=       0.01425959 Eh      8.95 kcal/mol|
|  sn=12 | S(rot)=       0.01417744 Eh      8.90 kcal/mol|
 --------------------------------------------------------


-------------------
GIBBS FREE ENERGY
-------------------

The Gibbs free energy is G = H - T*S

Total enthalpy                    ...   -936.49295416 Eh 
Total entropy correction          ...     -0.06298171 Eh    -39.52 kcal/mol
-----------------------------------------------------------------------
Final Gibbs free energy         ...   -936.55593586 Eh

For completeness - the Gibbs free energy minus the electronic energy
G-E(el)                           ...      0.23328020 Eh    146.39 kcal/mol


Timings for individual modules:

Sum of individual times         ...     1924.002 sec (=  32.067 min)
GTO integral calculation        ...       53.431 sec (=   0.891 min)   2.8 %
SCF iterations                  ...      799.068 sec (=  13.318 min)  41.5 %
SCF Gradient evaluation         ...      149.668 sec (=   2.494 min)   7.8 %
Geometry relaxation             ...        9.250 sec (=   0.154 min)   0.5 %
Analytical frequency calculation...      912.586 sec (=  15.210 min)  47.4 %
                             ****ORCA TERMINATED NORMALLY****
TOTAL RUN TIME: 0 days 0 hours 32 minutes 20 seconds 739 msec
