Start Job  on nano09

                                 *****************
                                 * O   R   C   A *
                                 *****************

                                            #,                                       
                                            ###                                      
                                            ####                                     
                                            #####                                    
                                            ######                                   
                                           ########,                                 
                                     ,,################,,,,,                         
                               ,,#################################,,                 
                          ,,##########################################,,             
                       ,#########################################, ''#####,          
                    ,#############################################,,   '####,        
                  ,##################################################,,,,####,       
                ,###########''''           ''''###############################       
              ,#####''   ,,,,##########,,,,          '''####'''          '####       
            ,##' ,,,,###########################,,,                        '##       
           ' ,,###''''                  '''############,,,                           
         ,,##''                                '''############,,,,        ,,,,,,###''
      ,#''                                            '''#######################'''  
     '                                                          ''''####''''         
             ,#######,   #######,   ,#######,      ##                                
            ,#'     '#,  ##    ##  ,#'     '#,    #''#        ######   ,####,        
            ##       ##  ##   ,#'  ##            #'  '#       #        #'  '#        
            ##       ##  #######   ##           ,######,      #####,   #    #        
            '#,     ,#'  ##    ##  '#,     ,#' ,#      #,         ##   #,  ,#        
             '#######'   ##     ##  '#######'  #'      '#     #####' # '####'        



                  #######################################################
                  #                        -***-                        #
                  #          Department of theory and spectroscopy      #
                  #    Directorship and core code : Frank Neese         #
                  #        Max Planck Institute fuer Kohlenforschung    #
                  #                Kaiser Wilhelm Platz 1               #
                  #                 D-45470 Muelheim/Ruhr               #
                  #                      Germany                        #
                  #                                                     #
                  #                  All rights reserved                #
                  #                        -***-                        #
                  #######################################################


                         Program Version 5.0.4 -  RELEASE  -


 With contributions from (in alphabetic order):
   Daniel Aravena         : Magnetic Suceptibility
   Michael Atanasov       : Ab Initio Ligand Field Theory (pilot matlab implementation)
   Alexander A. Auer      : GIAO ZORA, VPT2 properties, NMR spectrum
   Ute Becker             : Parallelization
   Giovanni Bistoni       : ED, misc. LED, open-shell LED, HFLD
   Martin Brehm           : Molecular dynamics
   Dmytro Bykov           : SCF Hessian
   Vijay G. Chilkuri      : MRCI spin determinant printing, contributions to CSF-ICE
   Dipayan Datta          : RHF DLPNO-CCSD density
   Achintya Kumar Dutta   : EOM-CC, STEOM-CC
   Dmitry Ganyushin       : Spin-Orbit,Spin-Spin,Magnetic field MRCI
   Miquel Garcia          : C-PCM and meta-GGA Hessian, CC/C-PCM, Gaussian charge scheme
   Yang Guo               : DLPNO-NEVPT2, F12-NEVPT2, CIM, IAO-localization
   Andreas Hansen         : Spin unrestricted coupled pair/coupled cluster methods
   Benjamin Helmich-Paris : MC-RPA, TRAH-SCF, COSX integrals
   Lee Huntington         : MR-EOM, pCC
   Robert Izsak           : Overlap fitted RIJCOSX, COSX-SCS-MP3, EOM
   Marcus Kettner         : VPT2
   Christian Kollmar      : KDIIS, OOCD, Brueckner-CCSD(T), CCSD density, CASPT2, CASPT2-K
   Simone Kossmann        : Meta GGA functionals, TD-DFT gradient, OOMP2, MP2 Hessian
   Martin Krupicka        : Initial AUTO-CI
   Lucas Lang             : DCDCAS
   Marvin Lechner         : AUTO-CI (C++ implementation), FIC-MRCC
   Dagmar Lenk            : GEPOL surface, SMD
   Dimitrios Liakos       : Extrapolation schemes; Compound Job, initial MDCI parallelization
   Dimitrios Manganas     : Further ROCIS development; embedding schemes
   Dimitrios Pantazis     : SARC Basis sets
   Anastasios Papadopoulos: AUTO-CI, single reference methods and gradients
   Taras Petrenko         : DFT Hessian,TD-DFT gradient, ASA, ECA, R-Raman, ABS, FL, XAS/XES, NRVS
   Peter Pinski           : DLPNO-MP2, DLPNO-MP2 Gradient
   Christoph Reimann      : Effective Core Potentials
   Marius Retegan         : Local ZFS, SOC
   Christoph Riplinger    : Optimizer, TS searches, QM/MM, DLPNO-CCSD(T), (RO)-DLPNO pert. Triples
   Tobias Risthaus        : Range-separated hybrids, TD-DFT gradient, RPA, STAB
   Michael Roemelt        : Original ROCIS implementation
   Masaaki Saitow         : Open-shell DLPNO-CCSD energy and density
   Barbara Sandhoefer     : DKH picture change effects
   Avijit Sen             : IP-ROCIS
   Kantharuban Sivalingam : CASSCF convergence, NEVPT2, FIC-MRCI
   Bernardo de Souza      : ESD, SOC TD-DFT
   Georgi Stoychev        : AutoAux, RI-MP2 NMR, DLPNO-MP2 response
   Willem Van den Heuvel  : Paramagnetic NMR
   Boris Wezisla          : Elementary symmetry handling
   Frank Wennmohs         : Technical directorship


 We gratefully acknowledge several colleagues who have allowed us to
 interface, adapt or use parts of their codes:
   Stefan Grimme, W. Hujo, H. Kruse, P. Pracht,  : VdW corrections, initial TS optimization,
                  C. Bannwarth, S. Ehlert          DFT functionals, gCP, sTDA/sTD-DF
   Ed Valeev, F. Pavosevic, A. Kumar             : LibInt (2-el integral package), F12 methods
   Garnet Chan, S. Sharma, J. Yang, R. Olivares  : DMRG
   Ulf Ekstrom                                   : XCFun DFT Library
   Mihaly Kallay                                 : mrcc  (arbitrary order and MRCC methods)
   Jiri Pittner, Ondrej Demel                    : Mk-CCSD
   Frank Weinhold                                : gennbo (NPA and NBO analysis)
   Christopher J. Cramer and Donald G. Truhlar   : smd solvation model
   Lars Goerigk                                  : TD-DFT with DH, B97 family of functionals
   V. Asgeirsson, H. Jonsson                     : NEB implementation
   FAccTs GmbH                                   : IRC, NEB, NEB-TS, DLPNO-Multilevel, CI-OPT
                                                   MM, QMMM, 2- and 3-layer-ONIOM, Crystal-QMMM,
                                                   LR-CPCM, SF, NACMEs, symmetry and pop. for TD-DFT,
                                                   nearIR, NL-DFT gradient (VV10), updates on ESD,
                                                   ML-optimized integration grids
   S Lehtola, MJT Oliveira, MAL Marques          : LibXC Library
   Liviu Ungur et al                             : ANISO software


 Your calculation uses the libint2 library for the computation of 2-el integrals
 For citations please refer to: http://libint.valeyev.net

 Your ORCA version has been built with support for libXC version: 5.1.0
 For citations please refer to: https://tddft.org/programs/libxc/

 This ORCA versions uses:
   CBLAS   interface :  Fast vector & matrix operations
   LAPACKE interface :  Fast linear algebra routines
   SCALAPACK package :  Parallel linear algebra routines
   Shared memory     :  Shared parallel matrices
   BLAS/LAPACK       :  OpenBLAS 0.3.15  USE64BITINT DYNAMIC_ARCH NO_AFFINITY Zen SINGLE_THREADED
        Core in use  :  Zen
   Copyright (c) 2011-2014, The OpenBLAS Project


================================================================================

----- Orbital basis set information -----
Your calculation utilizes the basis: def2-SVP
   F. Weigend and R. Ahlrichs, Phys. Chem. Chem. Phys. 7, 3297 (2005).

----- AuxJ basis set information -----
Your calculation utilizes the auxiliary basis: def2/J
   F. Weigend, Phys. Chem. Chem. Phys. 8, 1057 (2006).

================================================================================
                                        WARNINGS
                       Please study these warnings very carefully!
================================================================================


WARNING: Geometry Optimization
  ===> : Switching off AutoStart
         For restart on a previous wavefunction, please use MOREAD

INFO   : the flag for use of the SHARK integral package has been found!

================================================================================
                                       INPUT FILE
================================================================================
NAME = NC_OH_2.inp
|  1> ! B3LYP def2-SVP Opt PAL8 FREQ defgrid3 slowconv VeryTightSCF
|  2> *xyz 0 1
|  3>   C      -7.213700      2.889523     -0.259660
|  4>   C      -5.954912      3.529019     -0.260046
|  5>   C      -4.771203      2.820892     -0.156225
|  6>   C      -4.778643      1.415570     -0.046693
|  7>   C      -3.566670      0.661531      0.056579
|  8>   C      -3.580291     -0.700100      0.159909
|  9>   C      -4.807362     -1.448826      0.171815
| 10>   C      -4.837974     -2.876678      0.276660
| 11>   C      -6.099441     -3.512820      0.281253
| 12>   C      -7.285491     -2.804115      0.186496
| 13>   C      -7.285935     -1.400269      0.079581
| 14>   C      -8.497139     -0.646161     -0.021058
| 15>   C      -8.487567      0.715450     -0.127985
| 16>   C      -7.258738      1.462080     -0.143821
| 17>   C      -6.028267      0.722389     -0.039105
| 18>   C      -6.036961     -0.709609      0.071500
| 19>   C      -8.439267      3.674003     -0.379905
| 20>   C      -3.601919     -3.653503      0.376177
| 21>   C      -8.542041      5.021736     -0.508908
| 22>   C      -3.495663     -4.995271      0.450242
| 23>   C      -9.800845      5.680457     -0.624709
| 24>   O      -2.284987     -5.596082      0.540461
| 25>   N     -10.819117      6.235375     -0.720805
| 26>   H      -5.905788      4.616127     -0.345192
| 27>   H      -3.814468      3.349775     -0.159947
| 28>   H      -2.615783      1.201261      0.050339
| 29>   H      -2.628169     -1.224053      0.235429
| 30>   H      -6.153814     -4.600165      0.364083
| 31>   H      -8.240344     -3.337193      0.194878
| 32>   H      -9.448469     -1.185617     -0.011381
| 33>   H      -9.442374      1.234870     -0.201706
| 34>   H      -9.382290      3.125661     -0.369241
| 35>   H      -2.649798     -3.121396      0.392260
| 36>   H      -7.665135      5.674734     -0.533753
| 37>   H      -4.362930     -5.665060      0.440485
| 38>   H      -2.394285     -6.553534      0.581991
| 39> *
| 40> 
| 41>                          ****END OF INPUT****
================================================================================

                       *****************************
                       * Geometry Optimization Run *
                       *****************************

Geometry optimization settings:
Update method            Update   .... BFGS
Choice of coordinates    CoordSys .... Z-matrix Internals
Initial Hessian          InHess   .... Almoef's Model

Convergence Tolerances:
Energy Change            TolE     ....  5.0000e-06 Eh
Max. Gradient            TolMAXG  ....  3.0000e-04 Eh/bohr
RMS Gradient             TolRMSG  ....  1.0000e-04 Eh/bohr
Max. Displacement        TolMAXD  ....  4.0000e-03 bohr
RMS Displacement         TolRMSD  ....  2.0000e-03 bohr
Strict Convergence                ....  False
------------------------------------------------------------------------------
                        ORCA OPTIMIZATION COORDINATE SETUP
------------------------------------------------------------------------------

The optimization will be done in new redundant internal coordinates
Making redundant internal coordinates   ...  (new redundants) done
Evaluating the initial hessian          ...  (Almloef) done
Evaluating the coordinates              ...  done
Calculating the B-matrix                .... done
Calculating the G-matrix                .... done
Diagonalizing the G-matrix              .... done
Small eigenvalue found = 5.803e-03
Small eigenvalue found = 1.169e-02
Small eigenvalue found = 1.637e-02
The first mode is                       ....   94
The number of degrees of freedom        ....  102

    -----------------------------------------------------------------
                    Redundant Internal Coordinates


    -----------------------------------------------------------------
         Definition                    Initial Value    Approx d2E/dq
    -----------------------------------------------------------------
      1. B(C   1,C   0)                  1.4119         0.576468   
      2. B(C   2,C   1)                  1.3833         0.640475   
      3. B(C   3,C   2)                  1.4096         0.581383   
      4. B(C   4,C   3)                  1.4311         0.537188   
      5. B(C   5,C   4)                  1.3656         0.683353   
      6. B(C   6,C   5)                  1.4375         0.524734   
      7. B(C   7,C   6)                  1.4320         0.535418   
      8. B(C   8,C   7)                  1.4128         0.574601   
      9. B(C   9,C   8)                  1.3849         0.636606   
     10. B(C  10,C   9)                  1.4079         0.585008   
     11. B(C  11,C  10)                  1.4303         0.538774   
     12. B(C  12,C  11)                  1.3658         0.682794   
     13. B(C  13,C  12)                  1.4380         0.523868   
     14. B(C  13,C   0)                  1.4328         0.533807   
     15. B(C  14,C   3)                  1.4290         0.541345   
     16. B(C  14,C  13)                  1.4395         0.520908   
     17. B(C  15,C  14)                  1.4363         0.527092   
     18. B(C  15,C  10)                  1.4272         0.544911   
     19. B(C  15,C   6)                  1.4382         0.523406   
     20. B(C  16,C   0)                  1.4601         0.482952   
     21. B(C  17,C   7)                  1.4633         0.477334   
     22. B(C  18,C  16)                  1.3578         0.703284   
     23. B(C  19,C  17)                  1.3480         0.729019   
     24. B(C  20,C  18)                  1.4255         0.548503   
     25. B(O  21,C  19)                  1.3546         0.637394   
     26. B(N  22,C  20)                  1.1636         1.285365   
     27. B(H  23,C   1)                  1.0915         0.358064   
     28. B(H  24,C   2)                  1.0932         0.355900   
     29. B(H  25,C   4)                  1.0934         0.355624   
     30. B(H  26,C   5)                  1.0894         0.360910   
     31. B(H  27,C   8)                  1.0918         0.357661   
     32. B(H  28,C   9)                  1.0936         0.355354   
     33. B(H  29,C  11)                  1.0937         0.355265   
     34. B(H  30,C  12)                  1.0894         0.360836   
     35. B(H  31,C  16)                  1.0909         0.358898   
     36. B(H  32,C  17)                  1.0908         0.358991   
     37. B(H  33,C  18)                  1.0936         0.355353   
     38. B(H  34,C  19)                  1.0958         0.352457   
     39. B(H  35,O  21)                  0.9646         0.511310   
     40. A(C   1,C   0,C  16)          120.3293         0.409768   
     41. A(C   1,C   0,C  13)          118.6375         0.417120   
     42. A(C  13,C   0,C  16)          121.0328         0.404235   
     43. A(C   2,C   1,H  23)          118.5021         0.354516   
     44. A(C   0,C   1,H  23)          119.4216         0.348263   
     45. A(C   0,C   1,C   2)          122.0762         0.430932   
     46. A(C   1,C   2,C   3)          120.7764         0.431590   
     47. A(C   1,C   2,H  24)          120.0661         0.354152   
     48. A(C   3,C   2,H  24)          119.1574         0.348406   
     49. A(C   2,C   3,C  14)          119.2504         0.418796   
     50. A(C   2,C   3,C   4)          121.7641         0.418221   
     51. A(C   4,C   3,C  14)          118.9856         0.412947   
     52. A(C   5,C   4,H  25)          120.0854         0.358022   
     53. A(C   3,C   4,C   5)          121.4908         0.430486   
     54. A(C   3,C   4,H  25)          118.4238         0.343760   
     55. A(C   4,C   5,H  26)          118.4301         0.358922   
     56. A(C   4,C   5,C   6)          121.9022         0.428678   
     57. A(C   6,C   5,H  26)          119.6677         0.343259   
     58. A(C   5,C   6,C   7)          122.5602         0.410430   
     59. A(C   7,C   6,C  15)          119.9551         0.410245   
     60. A(C   5,C   6,C  15)          117.4846         0.408783   
     61. A(C   6,C   7,C   8)          117.9230         0.417103   
     62. A(C   8,C   7,C  17)          120.9957         0.408685   
     63. A(C   6,C   7,C  17)          121.0813         0.403615   
     64. A(C   9,C   8,H  27)          118.1750         0.354084   
     65. A(C   7,C   8,H  27)          119.5462         0.348007   
     66. A(C   7,C   8,C   9)          122.2786         0.430213   
     67. A(C  10,C   9,H  28)          119.1007         0.348681   
     68. A(C   8,C   9,H  28)          119.8534         0.353696   
     69. A(C   8,C   9,C  10)          121.0459         0.431602   
     70. A(C  11,C  10,C  15)          119.0456         0.413645   
     71. A(C   9,C  10,C  15)          118.8599         0.419752   
     72. A(C   9,C  10,C  11)          122.0945         0.418905   
     73. A(C  10,C  11,H  29)          118.4186         0.343872   
     74. A(C  10,C  11,C  12)          121.6798         0.430651   
     75. A(C  12,C  11,H  29)          119.9016         0.357911   
     76. A(C  13,C  12,H  30)          120.0433         0.343152   
     77. A(C  11,C  12,H  30)          118.3239         0.358860   
     78. A(C  11,C  12,C  13)          121.6328         0.428488   
     79. A(C  12,C  13,C  14)          117.5721         0.408318   
     80. A(C   0,C  13,C  14)          119.4016         0.409679   
     81. A(C   0,C  13,C  12)          123.0263         0.410091   
     82. A(C  13,C  14,C  15)          120.8468         0.408761   
     83. A(C   3,C  14,C  15)          119.2962         0.411559   
     84. A(C   3,C  14,C  13)          119.8569         0.410698   
     85. A(C  10,C  15,C  14)          119.2224         0.412039   
     86. A(C   6,C  15,C  14)          120.8404         0.409108   
     87. A(C   6,C  15,C  10)          119.9372         0.411526   
     88. A(C  18,C  16,H  31)          115.7485         0.360341   
     89. A(C   0,C  16,H  31)          117.0469         0.338213   
     90. A(C   0,C  16,C  18)          127.2043         0.424534   
     91. A(C  19,C  17,H  32)          114.5778         0.362573   
     92. A(C   7,C  17,H  32)          118.6421         0.337568   
     93. A(C   7,C  17,C  19)          126.7800         0.426380   
     94. A(C  20,C  18,H  33)          115.4883         0.344921   
     95. A(C  16,C  18,H  33)          122.2860         0.359732   
     96. A(C  16,C  18,C  20)          122.2255         0.434341   
     97. A(O  21,C  19,H  34)          115.9026         0.351106   
     98. A(C  17,C  19,H  34)          123.0595         0.361438   
     99. A(C  17,C  19,O  21)          121.0378         0.446236   
    100. L(C  18,C  20,N  22,H  33, 2) 179.9663         0.481587   
    101. L(C  18,C  20,N  22,H  33, 1) 179.0343         0.481587   
    102. A(C  19,O  21,H  35)          109.9906         0.370810   
    103. D(H  23,C   1,C   0,C  13)   -179.8525         0.022819   
    104. D(H  23,C   1,C   0,C  16)      0.3551         0.022819   
    105. D(C   2,C   1,C   0,C  13)      0.1850         0.022819   
    106. D(C   2,C   1,C   0,C  16)   -179.6074         0.022819   
    107. D(C   3,C   2,C   1,C   0)      0.0932         0.028504   
    108. D(C   3,C   2,C   1,H  23)   -179.8696         0.028504   
    109. D(H  24,C   2,C   1,H  23)      0.0359         0.028504   
    110. D(H  24,C   2,C   1,C   0)    179.9988         0.028504   
    111. D(C  14,C   3,C   2,H  24)    179.8837         0.023227   
    112. D(C   4,C   3,C   2,C   1)    179.7516         0.023227   
    113. D(C   4,C   3,C   2,H  24)     -0.1547         0.023227   
    114. D(C  14,C   3,C   2,C   1)     -0.2099         0.023227   
    115. D(H  25,C   4,C   3,C   2)      0.0672         0.019712   
    116. D(C   5,C   4,C   3,C   2)   -179.8744         0.019712   
    117. D(C   5,C   4,C   3,C  14)      0.0872         0.019712   
    118. D(H  25,C   4,C   3,C  14)   -179.9712         0.019712   
    119. D(H  26,C   5,C   4,H  25)      0.0360         0.032759   
    120. D(C   6,C   5,C   4,C   3)     -0.0533         0.032759   
    121. D(C   6,C   5,C   4,H  25)   -179.9940         0.032759   
    122. D(H  26,C   5,C   4,C   3)    179.9766         0.032759   
    123. D(C  15,C   6,C   5,H  26)    179.9099         0.018785   
    124. D(C  15,C   6,C   5,C   4)     -0.0598         0.018785   
    125. D(C   7,C   6,C   5,H  26)     -0.1679         0.018785   
    126. D(C   7,C   6,C   5,C   4)    179.8624         0.018785   
    127. D(C  17,C   7,C   6,C  15)    179.8256         0.019578   
    128. D(C  17,C   7,C   6,C   5)     -0.0947         0.019578   
    129. D(C   8,C   7,C   6,C  15)     -0.1832         0.019578   
    130. D(C   8,C   7,C   6,C   5)    179.8965         0.019578   
    131. D(H  27,C   8,C   7,C   6)   -179.7573         0.022664   
    132. D(C   9,C   8,C   7,C  17)   -179.9028         0.022664   
    133. D(C   9,C   8,C   7,C   6)      0.1059         0.022664   
    134. D(H  27,C   8,C   7,C  17)      0.2339         0.022664   
    135. D(H  28,C   9,C   8,H  27)     -0.0749         0.028137   
    136. D(H  28,C   9,C   8,C   7)   -179.9400         0.028137   
    137. D(C  10,C   9,C   8,H  27)    179.8872         0.028137   
    138. D(C  10,C   9,C   8,C   7)      0.0221         0.028137   
    139. D(C  15,C  10,C   9,H  28)    179.8913         0.023532   
    140. D(C  15,C  10,C   9,C   8)     -0.0711         0.023532   
    141. D(C  11,C  10,C   9,H  28)     -0.1111         0.023532   
    142. D(C  11,C  10,C   9,C   8)    179.9265         0.023532   
    143. D(H  29,C  11,C  10,C  15)   -179.8515         0.019832   
    144. D(H  29,C  11,C  10,C   9)      0.1509         0.019832   
    145. D(C  12,C  11,C  10,C  15)      0.1737         0.019832   
    146. D(C  12,C  11,C  10,C   9)   -179.8239         0.019832   
    147. D(H  30,C  12,C  11,H  29)      0.0079         0.032701   
    148. D(H  30,C  12,C  11,C  10)    179.9823         0.032701   
    149. D(C  13,C  12,C  11,H  29)    179.9726         0.032701   
    150. D(C  13,C  12,C  11,C  10)     -0.0530         0.032701   
    151. D(C  14,C  13,C  12,H  30)    179.8116         0.018722   
    152. D(C   0,C  13,C  12,H  30)     -0.2719         0.018722   
    153. D(C   0,C  13,C  12,C  11)    179.7640         0.018722   
    154. D(C  14,C  13,C   0,C  16)    179.4518         0.019457   
    155. D(C  14,C  13,C   0,C   1)     -0.3391         0.019457   
    156. D(C  14,C  13,C  12,C  11)     -0.1525         0.018722   
    157. D(C  12,C  13,C   0,C  16)     -0.4632         0.019457   
    158. D(C  12,C  13,C   0,C   1)    179.7459         0.019457   
    159. D(C   3,C  14,C  13,C  12)   -179.8545         0.018506   
    160. D(C   3,C  14,C  13,C   0)      0.2258         0.018506   
    161. D(C  15,C  14,C   3,C   4)     -0.0066         0.020027   
    162. D(C  15,C  14,C   3,C   2)    179.9560         0.020027   
    163. D(C  13,C  14,C   3,C   4)   -179.9143         0.020027   
    164. D(C  15,C  14,C  13,C   0)   -179.6805         0.018506   
    165. D(C  13,C  14,C   3,C   2)      0.0483         0.020027   
    166. D(C  15,C  14,C  13,C  12)      0.2392         0.018506   
    167. D(C  10,C  15,C  14,C  13)     -0.1236         0.018959   
    168. D(C   6,C  15,C  14,C  13)    179.7998         0.018959   
    169. D(C   6,C  15,C  14,C   3)     -0.1070         0.018959   
    170. D(C  14,C  15,C  10,C  11)     -0.0829         0.020300   
    171. D(C  14,C  15,C  10,C   9)    179.9147         0.020300   
    172. D(C   6,C  15,C  10,C  11)    179.9929         0.020300   
    173. D(C   6,C  15,C  10,C   9)     -0.0094         0.020300   
    174. D(C  14,C  15,C   6,C   7)   -179.7851         0.018688   
    175. D(C  14,C  15,C   6,C   5)      0.1392         0.018688   
    176. D(C  10,C  15,C  14,C   3)    179.9696         0.018959   
    177. D(C  10,C  15,C   6,C   7)      0.1378         0.018688   
    178. D(C  10,C  15,C   6,C   5)   -179.9379         0.018688   
    179. D(H  31,C  16,C   0,C  13)      0.4732         0.015880   
    180. D(H  31,C  16,C   0,C   1)   -179.7395         0.015880   
    181. D(C  18,C  16,C   0,C  13)   -179.3113         0.015880   
    182. D(C  18,C  16,C   0,C   1)      0.4761         0.015880   
    183. D(H  32,C  17,C   7,C   8)   -178.6035         0.015513   
    184. D(H  32,C  17,C   7,C   6)      1.3875         0.015513   
    185. D(C  19,C  17,C   7,C   8)      1.5451         0.015513   
    186. D(C  19,C  17,C   7,C   6)   -178.4640         0.015513   
    187. D(H  33,C  18,C  16,H  31)   -179.8955         0.034863   
    188. D(H  33,C  18,C  16,C   0)     -0.1087         0.034863   
    189. D(C  20,C  18,C  16,H  31)     -0.0674         0.034863   
    190. D(C  20,C  18,C  16,C   0)    179.7194         0.034863   
    191. D(H  34,C  19,C  17,H  32)   -179.7103         0.037700   
    192. D(H  34,C  19,C  17,C   7)      0.1463         0.037700   
    193. D(O  21,C  19,C  17,H  32)      0.1911         0.037700   
    194. D(O  21,C  19,C  17,C   7)   -179.9523         0.037700   
    195. D(H  35,O  21,C  19,H  34)      0.0494         0.029931   
    196. D(H  35,O  21,C  19,C  17)   -179.8588         0.029931   
    -----------------------------------------------------------------

Number of atoms                         .... 36
Number of degrees of freedom            .... 196

         *************************************************************
         *                GEOMETRY OPTIMIZATION CYCLE   1            *
         *************************************************************
---------------------------------
CARTESIAN COORDINATES (ANGSTROEM)
---------------------------------
  C     -7.213700    2.889523   -0.259660
  C     -5.954912    3.529019   -0.260046
  C     -4.771203    2.820892   -0.156225
  C     -4.778643    1.415570   -0.046693
  C     -3.566670    0.661531    0.056579
  C     -3.580291   -0.700100    0.159909
  C     -4.807362   -1.448826    0.171815
  C     -4.837974   -2.876678    0.276660
  C     -6.099441   -3.512820    0.281253
  C     -7.285491   -2.804115    0.186496
  C     -7.285935   -1.400269    0.079581
  C     -8.497139   -0.646161   -0.021058
  C     -8.487567    0.715450   -0.127985
  C     -7.258738    1.462080   -0.143821
  C     -6.028267    0.722389   -0.039105
  C     -6.036961   -0.709609    0.071500
  C     -8.439267    3.674003   -0.379905
  C     -3.601919   -3.653503    0.376177
  C     -8.542041    5.021736   -0.508908
  C     -3.495663   -4.995271    0.450242
  C     -9.800845    5.680457   -0.624709
  O     -2.284987   -5.596082    0.540461
  N    -10.819117    6.235375   -0.720805
  H     -5.905788    4.616127   -0.345192
  H     -3.814468    3.349775   -0.159947
  H     -2.615783    1.201261    0.050339
  H     -2.628169   -1.224053    0.235429
  H     -6.153814   -4.600165    0.364083
  H     -8.240344   -3.337193    0.194878
  H     -9.448469   -1.185617   -0.011381
  H     -9.442374    1.234870   -0.201706
  H     -9.382290    3.125661   -0.369241
  H     -2.649798   -3.121396    0.392260
  H     -7.665135    5.674734   -0.533753
  H     -4.362930   -5.665060    0.440485
  H     -2.394285   -6.553534    0.581991

----------------------------
CARTESIAN COORDINATES (A.U.)
----------------------------
  NO LB      ZA    FRAG     MASS         X           Y           Z
   0 C     6.0000    0    12.011  -13.631917    5.460407   -0.490686
   1 C     6.0000    0    12.011  -11.253153    6.668879   -0.491416
   2 C     6.0000    0    12.011   -9.016267    5.330713   -0.295222
   3 C     6.0000    0    12.011   -9.030327    2.675040   -0.088237
   4 C     6.0000    0    12.011   -6.740030    1.250112    0.106919
   5 C     6.0000    0    12.011   -6.765769   -1.322997    0.302184
   6 C     6.0000    0    12.011   -9.084598   -2.737884    0.324683
   7 C     6.0000    0    12.011   -9.142446   -5.436134    0.522812
   8 C     6.0000    0    12.011  -11.526273   -6.638268    0.531491
   9 C     6.0000    0    12.011  -13.767583   -5.299009    0.352426
  10 C     6.0000    0    12.011  -13.768422   -2.646125    0.150386
  11 C     6.0000    0    12.011  -16.057266   -1.221067   -0.039794
  12 C     6.0000    0    12.011  -16.039177    1.352005   -0.241857
  13 C     6.0000    0    12.011  -13.717027    2.762931   -0.271782
  14 C     6.0000    0    12.011  -11.391774    1.365117   -0.073898
  15 C     6.0000    0    12.011  -11.408203   -1.340967    0.135115
  16 C     6.0000    0    12.011  -15.947903    6.942859   -0.717916
  17 C     6.0000    0    12.011   -6.806640   -6.904120    0.710872
  18 C     6.0000    0    12.011  -16.142118    9.489706   -0.961697
  19 C     6.0000    0    12.011   -6.605846   -9.439694    0.850834
  20 C     6.0000    0    12.011  -18.520913   10.734508   -1.180529
  21 O     8.0000    0    15.999   -4.318000  -10.575062    1.021323
  22 N     7.0000    0    14.007  -20.445168   11.783151   -1.362124
  23 H     1.0000    0     1.008  -11.160322    8.723216   -0.652318
  24 H     1.0000    0     1.008   -7.208300    6.330157   -0.302256
  25 H     1.0000    0     1.008   -4.943113    2.270054    0.095127
  26 H     1.0000    0     1.008   -4.966520   -2.313125    0.444896
  27 H     1.0000    0     1.008  -11.629023   -8.693052    0.688017
  28 H     1.0000    0     1.008  -15.571993   -6.306381    0.368266
  29 H     1.0000    0     1.008  -17.855019   -2.240491   -0.021507
  30 H     1.0000    0     1.008  -17.843501    2.333566   -0.381169
  31 H     1.0000    0     1.008  -17.729959    5.906643   -0.697764
  32 H     1.0000    0     1.008   -5.007393   -5.898584    0.741264
  33 H     1.0000    0     1.008  -14.485006   10.723693   -1.008647
  34 H     1.0000    0     1.008   -8.244743  -10.705412    0.832396
  35 H     1.0000    0     1.008   -4.524543  -12.384384    1.099804

--------------------------------
INTERNAL COORDINATES (ANGSTROEM)
--------------------------------
 C      0   0   0     0.000000000000     0.00000000     0.00000000
 C      1   0   0     1.411914484647     0.00000000     0.00000000
 C      2   1   0     1.383253282971   122.07624673     0.00000000
 C      3   2   1     1.409603680581   120.77640743     0.09324500
 C      4   3   2     1.431124897496   121.76405586   179.75163932
 C      5   4   3     1.365614001357   121.49082694   180.12559054
 C      6   5   4     1.437510213860   121.90219455   359.94665961
 C      7   6   5     1.432023359611   122.56021981   179.86239776
 C      8   7   6     1.412797484391   117.92300386   179.89647845
 C      9   8   7     1.384902981647   122.27864777     0.10594804
 C     10   9   8     1.407911434032   121.04589054     0.00000000
 C     11  10   9     1.430322415961   122.09449257   179.92651316
 C     12  11  10     1.365836564833   121.67982702   180.17612094
 C      1   2   3     1.432843541219   118.63753215     0.18499219
 C      4   3   2     1.429026807964   119.25036020   359.79009890
 C     11  10   9     1.427239500167   118.85991903   359.92890525
 C      1   2   3     1.460096641293   120.32933470   180.39262513
 C      8   7   6     1.463281475636   121.08133491   359.90528402
 C     17   1   2     1.357788094061   127.20432210     0.47606698
 C     18   8   7     1.348004943457   126.77995947   181.53602683
 C     19  17   1     1.425451064701   122.22554372   179.71943851
 O     20  18   8     1.354566241517   121.03781110   180.04774449
 N     21  19  17     1.163634948738   179.03417479   181.11485590
 H      2   1   3     1.091543316757   119.42162447   179.96249720
 H      3   2   1     1.093193917472   120.06613227   179.99876859
 H      5   4   3     1.093404544196   118.42378934     0.06715741
 H      6   5   4     1.089388048169   118.43008096   179.97662206
 H      9   8   7     1.091849981020   119.54617258   180.24266729
 H     10   9   8     1.093611751773   119.85337864   180.05999230
 H     12  11  10     1.093679655642   118.41860850     0.15089897
 H     13  12  11     1.089444046057   118.32391944   179.98226927
 H     17   1   2     1.090910192632   117.04686456   180.26047990
 H     18   8   7     1.090839548687   118.64211644     1.38746622
 H     19  17   1     1.093612268981   122.28596153   359.89130679
 H     20  18   8     1.095839656546   123.05954932     0.14633296
 H     22  20  18     0.964564733964   109.99056665   180.14123809

---------------------------
INTERNAL COORDINATES (A.U.)
---------------------------
 C      0   0   0     0.000000000000     0.00000000     0.00000000
 C      1   0   0     2.668131700499     0.00000000     0.00000000
 C      2   1   0     2.613969878663   122.07624673     0.00000000
 C      3   2   1     2.663764913666   120.77640743     0.09324500
 C      4   3   2     2.704434119704   121.76405586   179.75163932
 C      5   4   3     2.580636467213   121.49082694   180.12559054
 C      6   5   4     2.716500618911   121.90219455   359.94665961
 C      7   6   5     2.706131967044   122.56021981   179.86239776
 C      8   7   6     2.669800328192   117.92300386   179.89647845
 C      9   8   7     2.617087357363   122.27864777     0.10594804
 C     10   9   8     2.660567031136   121.04589054     0.00000000
 C     11  10   9     2.702917649375   122.09449257   179.92651316
 C     12  11  10     2.581057051230   121.67982702   180.17612094
 C      1   2   3     2.707681885662   118.63753215     0.18499219
 C      4   3   2     2.700469305084   119.25036020   359.79009890
 C     11  10   9     2.697091782830   118.85991903   359.92890525
 C      1   2   3     2.759182781101   120.32933470   180.39262513
 C      8   7   6     2.765201245792   121.08133491   359.90528402
 C     17   1   2     2.565847645674   127.20432210     0.47606698
 C     18   8   7     2.547360170306   126.77995947   181.53602683
 C     19  17   1     2.693712129592   122.22554372   179.71943851
 O     20  18   8     2.559759226723   121.03781110   180.04774449
 N     21  19  17     2.198951372974   179.03417479   181.11485590
 H      2   1   3     2.062717931982   119.42162447   179.96249720
 H      3   2   1     2.065837115291   120.06613227   179.99876859
 H      5   4   3     2.066235142116   118.42378934     0.06715741
 H      6   5   4     2.058645064606   118.43008096   179.97662206
 H      9   8   7     2.063297443455   119.54617258   180.24266729
 H     10   9   8     2.066626707690   119.85337864   180.05999230
 H     12  11  10     2.066755027405   118.41860850     0.15089897
 H     13  12  11     2.058750885280   118.32391944   179.98226927
 H     17   1   2     2.061521500778   117.04686456   180.26047990
 H     18   8   7     2.061388003068   118.64211644     1.38746622
 H     19  17   1     2.066627685070   122.28596153   359.89130679
 H     20  18   8     2.070836837562   123.05954932     0.14633296
 H     22  20  18     1.822763185632   109.99056665   180.14123809

---------------------
BASIS SET INFORMATION
---------------------
There are 4 groups of distinct atoms

 Group   1 Type C   : 7s4p1d contracted to 3s2p1d pattern {511/31/1}
 Group   2 Type O   : 7s4p1d contracted to 3s2p1d pattern {511/31/1}
 Group   3 Type N   : 7s4p1d contracted to 3s2p1d pattern {511/31/1}
 Group   4 Type H   : 4s1p contracted to 2s1p pattern {31/1}

Atom   0C    basis set group =>   1
Atom   1C    basis set group =>   1
Atom   2C    basis set group =>   1
Atom   3C    basis set group =>   1
Atom   4C    basis set group =>   1
Atom   5C    basis set group =>   1
Atom   6C    basis set group =>   1
Atom   7C    basis set group =>   1
Atom   8C    basis set group =>   1
Atom   9C    basis set group =>   1
Atom  10C    basis set group =>   1
Atom  11C    basis set group =>   1
Atom  12C    basis set group =>   1
Atom  13C    basis set group =>   1
Atom  14C    basis set group =>   1
Atom  15C    basis set group =>   1
Atom  16C    basis set group =>   1
Atom  17C    basis set group =>   1
Atom  18C    basis set group =>   1
Atom  19C    basis set group =>   1
Atom  20C    basis set group =>   1
Atom  21O    basis set group =>   2
Atom  22N    basis set group =>   3
Atom  23H    basis set group =>   4
Atom  24H    basis set group =>   4
Atom  25H    basis set group =>   4
Atom  26H    basis set group =>   4
Atom  27H    basis set group =>   4
Atom  28H    basis set group =>   4
Atom  29H    basis set group =>   4
Atom  30H    basis set group =>   4
Atom  31H    basis set group =>   4
Atom  32H    basis set group =>   4
Atom  33H    basis set group =>   4
Atom  34H    basis set group =>   4
Atom  35H    basis set group =>   4
---------------------------------
AUXILIARY/J BASIS SET INFORMATION
---------------------------------
There are 4 groups of distinct atoms

 Group   1 Type C   : 12s5p4d2f1g contracted to 6s4p3d1f1g pattern {711111/2111/211/2/1}
 Group   2 Type O   : 12s5p4d2f1g contracted to 6s4p3d1f1g pattern {711111/2111/211/2/1}
 Group   3 Type N   : 12s5p4d2f1g contracted to 6s4p3d1f1g pattern {711111/2111/211/2/1}
 Group   4 Type H   : 5s2p1d contracted to 3s1p1d pattern {311/2/1}

Atom   0C    basis set group =>   1
Atom   1C    basis set group =>   1
Atom   2C    basis set group =>   1
Atom   3C    basis set group =>   1
Atom   4C    basis set group =>   1
Atom   5C    basis set group =>   1
Atom   6C    basis set group =>   1
Atom   7C    basis set group =>   1
Atom   8C    basis set group =>   1
Atom   9C    basis set group =>   1
Atom  10C    basis set group =>   1
Atom  11C    basis set group =>   1
Atom  12C    basis set group =>   1
Atom  13C    basis set group =>   1
Atom  14C    basis set group =>   1
Atom  15C    basis set group =>   1
Atom  16C    basis set group =>   1
Atom  17C    basis set group =>   1
Atom  18C    basis set group =>   1
Atom  19C    basis set group =>   1
Atom  20C    basis set group =>   1
Atom  21O    basis set group =>   2
Atom  22N    basis set group =>   3
Atom  23H    basis set group =>   4
Atom  24H    basis set group =>   4
Atom  25H    basis set group =>   4
Atom  26H    basis set group =>   4
Atom  27H    basis set group =>   4
Atom  28H    basis set group =>   4
Atom  29H    basis set group =>   4
Atom  30H    basis set group =>   4
Atom  31H    basis set group =>   4
Atom  32H    basis set group =>   4
Atom  33H    basis set group =>   4
Atom  34H    basis set group =>   4
Atom  35H    basis set group =>   4


           ************************************************************
           *        Program running with 8 parallel MPI-processes     *
           *              working on a common directory               *
           ************************************************************
------------------------------------------------------------------------------
                           ORCA GTO INTEGRAL CALCULATION
                           -- RI-GTO INTEGRALS CHOSEN --
------------------------------------------------------------------------------
------------------------------------------------------------------------------
                   ___                                                        
                  /   \      - P O W E R E D   B Y -                         
                 /     \                                                     
                 |  |  |   _    _      __       _____    __    __             
                 |  |  |  | |  | |    /  \     |  _  \  |  |  /  |          
                  \  \/   | |  | |   /    \    | | | |  |  | /  /          
                 / \  \   | |__| |  /  /\  \   | |_| |  |  |/  /          
                |  |  |   |  __  | /  /__\  \  |    /   |      \           
                |  |  |   | |  | | |   __   |  |    \   |  |\   \          
                \     /   | |  | | |  |  |  |  | |\  \  |  | \   \       
                 \___/    |_|  |_| |__|  |__|  |_| \__\ |__|  \__/        
                                                                              
                      - O R C A' S   B I G   F R I E N D -                    
                                      &                                       
                       - I N T E G R A L  F E E D E R -                       
                                                                              
 v1 FN, 2020, v2 2021                                                         
------------------------------------------------------------------------------


Reading SHARK input file NC_OH_2.SHARKINP.tmp ... ok
----------------------
SHARK INTEGRAL PACKAGE
----------------------

Number of atoms                             ...     36
Number of basis functions                   ...    387
Number of shells                            ...    177
Maximum angular momentum                    ...      2
Integral batch strategy                     ... SHARK/LIBINT Hybrid
RI-J (if used) integral strategy            ... SPLIT-RIJ (Revised 2003 algorithm where possible)
Printlevel                                  ...      1
Contraction scheme used                     ... SEGMENTED contraction
Coulomb Range Separation                    ... NOT USED
Exchange Range Separation                   ... NOT USED
Finite Nucleus Model                        ... NOT USED
Auxiliary Coulomb fitting basis             ... AVAILABLE
   # of basis functions in Aux-J            ...   1270
   # of shells in Aux-J                     ...    410
   Maximum angular momentum in Aux-J        ...      4
Auxiliary J/K fitting basis                 ... NOT available
Auxiliary Correlation fitting basis         ... NOT available
Auxiliary 'external' fitting basis          ... NOT available
Integral threshold                          ...     1.000000e-12
Primitive cut-off                           ...     1.000000e-14
Primitive pair pre-selection threshold      ...     1.000000e-14

Calculating pre-screening integrals         ... done (  0.0 sec) Dimension = 177
Organizing shell pair data                  ... done (  0.2 sec)
Shell pair information
Total number of shell pairs                 ...     15753
Shell pairs after pre-screening             ...     11823
Total number of primitive shell pairs       ...     58649
Primitive shell pairs kept                  ...     28590
          la=0 lb=0:   3442 shell pairs
          la=1 lb=0:   4324 shell pairs
          la=1 lb=1:   1396 shell pairs
          la=2 lb=0:   1510 shell pairs
          la=2 lb=1:    967 shell pairs
          la=2 lb=2:    184 shell pairs

Calculating one electron integrals          ... done (  0.0 sec)
Calculating RI/J V-Matrix + Cholesky decomp.... done (  0.3 sec)
Calculating Nuclear repulsion               ... done (  0.0 sec) ENN=   1622.115900407812 Eh

SHARK setup successfully completed in   0.9 seconds

Maximum memory used throughout the entire GTOINT-calculation: 21.4 MB


           ************************************************************
           *        Program running with 8 parallel MPI-processes     *
           *              working on a common directory               *
           ************************************************************
-------------------------------------------------------------------------------
                                 ORCA SCF
-------------------------------------------------------------------------------

------------
SCF SETTINGS
------------
Hamiltonian:
 Density Functional     Method          .... DFT(GTOs)
 Exchange Functional    Exchange        .... B88
   X-Alpha parameter    XAlpha          ....  0.666667
   Becke's b parameter  XBeta           ....  0.004200
 Correlation Functional Correlation     .... LYP
 LDA part of GGA corr.  LDAOpt          .... VWN-5
 Gradients option       PostSCFGGA      .... off
 Hybrid DFT is turned on
   Fraction HF Exchange ScalHFX         ....  0.200000
   Scaling of DF-GGA-X  ScalDFX         ....  0.720000
   Scaling of DF-GGA-C  ScalDFC         ....  0.810000
   Scaling of DF-LDA-C  ScalLDAC        ....  1.000000
   Perturbative correction              ....  0.000000
   Density functional embedding theory  .... OFF
   NL short-range parameter             ....  4.800000
 RI-approximation to the Coulomb term is turned on
   Number of AuxJ basis functions       .... 1270
   RIJ-COSX (HFX calculated with COS-X)).... on


General Settings:
 Integral files         IntName         .... NC_OH_2
 Hartree-Fock type      HFTyp           .... RHF
 Total Charge           Charge          ....    0
 Multiplicity           Mult            ....    1
 Number of Electrons    NEL             ....  154
 Basis Dimension        Dim             ....  387
 Nuclear Repulsion      ENuc            ....   1622.1159004078 Eh

Convergence Acceleration:
 DIIS                   CNVDIIS         .... on
   Start iteration      DIISMaxIt       ....     0
   Startup error        DIISStart       ....  0.200000
   # of expansion vecs  DIISMaxEq       ....     5
   Bias factor          DIISBfac        ....   1.050
   Max. coefficient     DIISMaxC        ....  10.000
 Trust-Rad. Augm. Hess. CNVTRAH         .... auto
   Auto Start mean grad. ratio tolernc. ....  1.125000
   Auto Start start iteration           ....    20
   Auto Start num. interpolation iter.  ....    10
   Max. Number of Micro iterations      ....    16
   Max. Number of Macro iterations      .... Maxiter - #DIIS iter
   Number of Davidson start vectors     ....     2
   Converg. threshold I  (grad. norm)   ....   2.000e-06
   Converg. threshold II (energy diff.) ....   1.000e-09
   Grad. Scal. Fac. for Micro threshold ....   0.100
   Minimum threshold for Micro iter.    ....   0.010
   NR start threshold (gradient norm)   ....   0.001
   Initial trust radius                 ....   0.400
   Minimum AH scaling param. (alpha)    ....   1.000
   Maximum AH scaling param. (alpha)    .... 1000.000
   Orbital update algorithm             .... Taylor
   White noise on init. David. guess    .... on
   Maximum white noise                  ....   0.010
   Quad. conv. algorithm                .... NR
 SOSCF                  CNVSOSCF        .... on
   Start iteration      SOSCFMaxIt      ....   150
   Startup grad/error   SOSCFStart      ....  0.001000
 Level Shifting         CNVShift        .... on
   Level shift para.    LevelShift      ....    0.2500
   Turn off err/grad.   ShiftErr        ....    0.0000
 Zerner damping         CNVZerner       .... off
 Static damping         CNVDamp         .... on
   Fraction old density DampFac         ....    0.8500
   Max. Damping (<1)    DampMax         ....    0.9800
   Min. Damping (>=0)   DampMin         ....    0.0000
   Turn off err/grad.   DampErr         ....    0.0300
 Fernandez-Rico         CNVRico         .... off

SCF Procedure:
 Maximum # iterations   MaxIter         ....   125
 SCF integral mode      SCFMode         .... Direct
   Integral package                     .... SHARK and LIBINT hybrid scheme
 Reset frequency        DirectResetFreq ....    20
 Integral Threshold     Thresh          ....  1.000e-12 Eh
 Primitive CutOff       TCut            ....  1.000e-14 Eh

Convergence Tolerance:
 Convergence Check Mode ConvCheckMode   .... Total+1el-Energy
 Convergence forced     ConvForced      .... 0
 Energy Change          TolE            ....  1.000e-09 Eh
 1-El. energy change                    ....  1.000e-06 Eh
 Orbital Gradient       TolG            ....  2.000e-06
 Orbital Rotation angle TolX            ....  2.000e-06
 DIIS Error             TolErr          ....  1.000e-08


Diagonalization of the overlap matrix:
Smallest eigenvalue                        ... 1.990e-04
Time for diagonalization                   ...    0.031 sec
Threshold for overlap eigenvalues          ... 1.000e-08
Number of eigenvalues below threshold      ... 0
Time for construction of square roots      ...    0.026 sec
Total time needed                          ...    0.059 sec

Time for model grid setup =    0.331 sec

------------------------------
INITIAL GUESS: MODEL POTENTIAL
------------------------------
Loading Hartree-Fock densities                     ... done
Calculating cut-offs                               ... done
Initializing the effective Hamiltonian             ... done
Setting up the integral package (SHARK)            ... done
Starting the Coulomb interaction                   ... done (   0.2 sec)
Reading the grid                                   ... done
Mapping shells                                     ... done
Starting the XC term evaluation                    ... done (   0.1 sec)
  promolecular density results
     # of electrons  =    153.990174019
     EX              =   -126.551843891
     EC              =     -5.231684388
     EX+EC           =   -131.783528279
Transforming the Hamiltonian                       ... done (   0.0 sec)
Diagonalizing the Hamiltonian                      ... done (   0.0 sec)
Back transforming the eigenvectors                 ... done (   0.0 sec)
Now organizing SCF variables                       ... done
                      ------------------
                      INITIAL GUESS DONE (   0.8 sec)
                      ------------------
-------------------
DFT GRID GENERATION
-------------------

General Integration Accuracy     IntAcc      ... 4.959
Radial Grid Type                 RadialGrid  ... OptM3 with GC (2021)
Angular Grid (max. ang.)         AngularGrid ... 6 (Lebedev-590)
Angular grid pruning method      GridPruning ... 4 (adaptive)
Weight generation scheme         WeightScheme... Becke
Basis function cutoff            BFCut       ... 1.0000e-12
Integration weight cutoff        WCut        ... 1.0000e-14
Angular grids for H and He will be reduced by one unit
Partially contracted basis set               ... off
Rotationally invariant grid construction     ... off

Total number of grid points                  ...   436657
Total number of batches                      ...     6845
Average number of points per batch           ...       63
Average number of grid points per atom       ...    12129
Time for grid setup =    6.786 sec

--------------------
COSX GRID GENERATION
--------------------

GRIDX 1
-------
General Integration Accuracy     IntAcc      ... 4.020
Radial Grid Type                 RadialGrid  ... OptM3 with GC (2021)
Angular Grid (max. ang.)         AngularGrid ... 2 (Lebedev-110)
Angular grid pruning method      GridPruning ... 4 (adaptive)
Weight generation scheme         WeightScheme... Becke
Basis function cutoff            BFCut       ... 1.0000e-12
Integration weight cutoff        WCut        ... 1.0000e-14
Angular grids for H and He will be reduced by one unit
Partially contracted basis set               ... on
Rotationally invariant grid construction     ... off

Total number of grid points                  ...    50013
Total number of batches                      ...      802
Average number of points per batch           ...       62
Average number of grid points per atom       ...     1389
UseSFitting                                  ... on

GRIDX 2
-------
General Integration Accuracy     IntAcc      ... 4.338
Radial Grid Type                 RadialGrid  ... OptM3 with GC (2021)
Angular Grid (max. ang.)         AngularGrid ... 3 (Lebedev-194)
Angular grid pruning method      GridPruning ... 4 (adaptive)
Weight generation scheme         WeightScheme... Becke
Basis function cutoff            BFCut       ... 1.0000e-12
Integration weight cutoff        WCut        ... 1.0000e-14
Angular grids for H and He will be reduced by one unit
Partially contracted basis set               ... on
Rotationally invariant grid construction     ... off

Total number of grid points                  ...   109863
Total number of batches                      ...     1734
Average number of points per batch           ...       63
Average number of grid points per atom       ...     3052
UseSFitting                                  ... on

GRIDX 3
-------
General Integration Accuracy     IntAcc      ... 4.871
Radial Grid Type                 RadialGrid  ... OptM3 with GC (2021)
Angular Grid (max. ang.)         AngularGrid ... 4 (Lebedev-302)
Angular grid pruning method      GridPruning ... 4 (adaptive)
Weight generation scheme         WeightScheme... Becke
Basis function cutoff            BFCut       ... 1.0000e-12
Integration weight cutoff        WCut        ... 1.0000e-14
Angular grids for H and He will be reduced by one unit
Partially contracted basis set               ... on
Rotationally invariant grid construction     ... off

Total number of grid points                  ...   202719
Total number of batches                      ...     3185
Average number of points per batch           ...       63
Average number of grid points per atom       ...     5631
UseSFitting                                  ... on

Time for X-Grid setup             =    3.599 sec

--------------
SCF ITERATIONS
--------------
ITER       Energy         Delta-E        Max-DP      RMS-DP      [F,P]     Damp
               ***  Starting incremental Fock matrix formation  ***
  0   -936.3651630027   0.000000000000 0.04517750  0.00104792  0.2286767 0.8500
  1   -936.4732105217  -0.108047519051 0.03957943  0.00094756  0.1574212 0.8500
                               ***Turning on DIIS***
  2   -936.5449534600  -0.071742938258 0.02805351  0.00074216  0.1085414 0.8500
  3   -936.5916289339  -0.046675473955 0.01391016  0.00050702  0.0736938 0.8500
  4   -936.6264218417  -0.034792907827 0.01188759  0.00038485  0.0567709 0.8500
  5   -936.6532664385  -0.026844596765 0.01045338  0.00031172  0.0466850 0.8500
  6   -936.6750052977  -0.021738859213 0.00917651  0.00026069  0.0391893 0.8500
  7   -936.6929938107  -0.017988513007 0.00804934  0.00022178  0.0330959 0.8500
  8   -936.7080555392  -0.015061728469 0.04649215  0.00126338  0.0276470 0.0000
  9   -936.7886509678  -0.080595428619 0.00523639  0.00005851  0.0061140 0.0000
 10   -936.7886818184  -0.000030850619 0.00236572  0.00002305  0.0062698 0.0000
 11   -936.7887361319  -0.000054313472 0.00055231  0.00001010  0.0012487 0.0000
                      *** Initiating the SOSCF procedure ***
                           *** Shutting down DIIS ***
                      *** Re-Reading the Fockian *** 
                      *** Removing any level shift *** 
ITER      Energy       Delta-E        Grad      Rot      Max-DP    RMS-DP
 12   -936.78874055  -0.0000044162  0.000124  0.000124  0.000258  0.000004
               *** Restarting incremental Fock matrix formation ***
 13   -936.78872018   0.0000203657  0.000039  0.000262  0.000140  0.000003
 14   -936.78872023  -0.0000000481  0.000079  0.000244  0.000120  0.000003
 15   -936.78872031  -0.0000000833  0.000031  0.000200  0.000072  0.000002
 16   -936.78872033  -0.0000000212  0.000015  0.000053  0.000068  0.000001
 17   -936.78872034  -0.0000000080  0.000009  0.000053  0.000021  0.000001
 18   -936.78872035  -0.0000000037  0.000007  0.000020  0.000021  0.000000
                 **** Energy Check signals convergence ****
              ***Rediagonalizing the Fockian in SOSCF/NRSCF***

               *****************************************************
               *                     SUCCESS                       *
               *           SCF CONVERGED AFTER  19 CYCLES          *
               *****************************************************

Old exchange energy                            =    -25.607628044 Eh
New exchange energy                            =    -25.607621388 Eh
Exchange energy change after final integration =      0.000006656 Eh
Total energy after final integration           =   -936.788713690 Eh
Final COS-X integration done in                =    17.460 sec

----------------
TOTAL SCF ENERGY
----------------

Total Energy       :         -936.78871369 Eh          -25491.31685 eV

Components:
Nuclear Repulsion  :         1622.11590041 Eh           44140.01769 eV
Electronic Energy  :        -2558.90461410 Eh          -69631.33454 eV
One Electron Energy:        -4488.87584259 Eh         -122148.52159 eV
Two Electron Energy:         1929.97122849 Eh           52517.18705 eV
Max COSX asymmetry :            0.00000045 Eh               0.00001 eV

Virial components:
Potential Energy   :        -1863.94948518 Eh          -50720.64408 eV
Kinetic Energy     :          927.16077149 Eh           25229.32723 eV
Virial Ratio       :            2.01038433


DFT components:
N(Alpha)           :       76.999998767036 electrons
N(Beta)            :       76.999998767036 electrons
N(Total)           :      153.999997534072 electrons
E(X)               :     -101.760463371951 Eh       
E(C)               :       -6.162665168920 Eh       
E(XC)              :     -107.923128540871 Eh       
DFET-embed. en.    :        0.000000000000 Eh       

---------------
SCF CONVERGENCE
---------------

  Last Energy change         ...    4.8340e-10  Tolerance :   1.0000e-09
  Last MAX-Density change    ...    3.5527e-15  Tolerance :   1.0000e-08
  Last RMS-Density change    ...    4.1320e-17  Tolerance :   1.0000e-09
  Last Orbital Gradient      ...    6.6566e-06  Tolerance :   2.0000e-06
  Last Orbital Rotation      ...    1.8864e-05  Tolerance :   2.0000e-06

             **** THE GBW FILE WAS UPDATED (NC_OH_2.gbw) ****
             **** DENSITY NC_OH_2.scfp WAS UPDATED ****
             **** ENERGY FILE WAS UPDATED (NC_OH_2.en.tmp) ****
             **** THE GBW FILE WAS UPDATED (NC_OH_2.gbw) ****
             **** DENSITY NC_OH_2.scfp WAS UPDATED ****
----------------
ORBITAL ENERGIES
----------------

  NO   OCC          E(Eh)            E(eV) 
   0   2.0000     -19.182749      -521.9891 
   1   2.0000     -14.313439      -389.4885 
   2   2.0000     -10.261066      -279.2178 
   3   2.0000     -10.223213      -278.1878 
   4   2.0000     -10.221027      -278.1283 
   5   2.0000     -10.215407      -277.9754 
   6   2.0000     -10.214156      -277.9413 
   7   2.0000     -10.213911      -277.9346 
   8   2.0000     -10.211275      -277.8629 
   9   2.0000     -10.207907      -277.7713 
  10   2.0000     -10.207419      -277.7580 
  11   2.0000     -10.207119      -277.7498 
  12   2.0000     -10.206182      -277.7243 
  13   2.0000     -10.202474      -277.6234 
  14   2.0000     -10.201693      -277.6022 
  15   2.0000     -10.200674      -277.5744 
  16   2.0000     -10.200548      -277.5710 
  17   2.0000     -10.200238      -277.5626 
  18   2.0000     -10.199160      -277.5332 
  19   2.0000     -10.198516      -277.5157 
  20   2.0000     -10.198465      -277.5144 
  21   2.0000     -10.198383      -277.5121 
  22   2.0000     -10.190033      -277.2849 
  23   2.0000      -1.066434       -29.0192 
  24   2.0000      -0.893769       -24.3207 
  25   2.0000      -0.883157       -24.0319 
  26   2.0000      -0.858924       -23.3725 
  27   2.0000      -0.833504       -22.6808 
  28   2.0000      -0.820440       -22.3253 
  29   2.0000      -0.791381       -21.5346 
  30   2.0000      -0.782019       -21.2798 
  31   2.0000      -0.753832       -20.5128 
  32   2.0000      -0.744636       -20.2626 
  33   2.0000      -0.730725       -19.8840 
  34   2.0000      -0.710895       -19.3444 
  35   2.0000      -0.657970       -17.9043 
  36   2.0000      -0.641135       -17.4462 
  37   2.0000      -0.635694       -17.2981 
  38   2.0000      -0.620222       -16.8771 
  39   2.0000      -0.600619       -16.3437 
  40   2.0000      -0.582674       -15.8554 
  41   2.0000      -0.568971       -15.4825 
  42   2.0000      -0.547492       -14.8980 
  43   2.0000      -0.534040       -14.5320 
  44   2.0000      -0.526868       -14.3368 
  45   2.0000      -0.512522       -13.9464 
  46   2.0000      -0.505482       -13.7549 
  47   2.0000      -0.496981       -13.5235 
  48   2.0000      -0.474475       -12.9111 
  49   2.0000      -0.458951       -12.4887 
  50   2.0000      -0.451692       -12.2912 
  51   2.0000      -0.449590       -12.2340 
  52   2.0000      -0.433057       -11.7841 
  53   2.0000      -0.426972       -11.6185 
  54   2.0000      -0.424260       -11.5447 
  55   2.0000      -0.417732       -11.3671 
  56   2.0000      -0.412233       -11.2174 
  57   2.0000      -0.405798       -11.0423 
  58   2.0000      -0.402000       -10.9390 
  59   2.0000      -0.398088       -10.8325 
  60   2.0000      -0.385720       -10.4960 
  61   2.0000      -0.385204       -10.4819 
  62   2.0000      -0.376667       -10.2496 
  63   2.0000      -0.365497        -9.9457 
  64   2.0000      -0.358662        -9.7597 
  65   2.0000      -0.353919        -9.6306 
  66   2.0000      -0.347003        -9.4424 
  67   2.0000      -0.341545        -9.2939 
  68   2.0000      -0.328459        -8.9378 
  69   2.0000      -0.327135        -8.9018 
  70   2.0000      -0.321627        -8.7519 
  71   2.0000      -0.297314        -8.0903 
  72   2.0000      -0.281396        -7.6572 
  73   2.0000      -0.266359        -7.2480 
  74   2.0000      -0.243592        -6.6285 
  75   2.0000      -0.236956        -6.4479 
  76   2.0000      -0.194779        -5.3002 
  77   0.0000      -0.089527        -2.4361 
  78   0.0000      -0.049316        -1.3420 
  79   0.0000      -0.040968        -1.1148 
  80   0.0000      -0.017182        -0.4675 
  81   0.0000       0.006723         0.1829 
  82   0.0000       0.023074         0.6279 
  83   0.0000       0.024395         0.6638 
  84   0.0000       0.037862         1.0303 
  85   0.0000       0.058278         1.5858 
  86   0.0000       0.064012         1.7419 
  87   0.0000       0.067809         1.8452 
  88   0.0000       0.069838         1.9004 
  89   0.0000       0.080419         2.1883 
  90   0.0000       0.092869         2.5271 
  91   0.0000       0.099280         2.7015 
  92   0.0000       0.101333         2.7574 
  93   0.0000       0.120158         3.2697 
  94   0.0000       0.122194         3.3251 
  95   0.0000       0.124690         3.3930 
  96   0.0000       0.155728         4.2376 
  97   0.0000       0.159748         4.3470 
  98   0.0000       0.170300         4.6341 
  99   0.0000       0.191611         5.2140 
 100   0.0000       0.193997         5.2789 
 101   0.0000       0.206263         5.6127 
 102   0.0000       0.219987         5.9861 
 103   0.0000       0.227468         6.1897 
 104   0.0000       0.229930         6.2567 
 105   0.0000       0.238557         6.4915 
 106   0.0000       0.239504         6.5172 
 107   0.0000       0.246773         6.7150 
 108   0.0000       0.257010         6.9936 
 109   0.0000       0.267120         7.2687 
 110   0.0000       0.271312         7.3828 
 111   0.0000       0.278889         7.5890 
 112   0.0000       0.292213         7.9515 
 113   0.0000       0.296161         8.0589 
 114   0.0000       0.307732         8.3738 
 115   0.0000       0.314516         8.5584 
 116   0.0000       0.317508         8.6398 
 117   0.0000       0.324258         8.8235 
 118   0.0000       0.331255         9.0139 
 119   0.0000       0.335887         9.1399 
 120   0.0000       0.344063         9.3624 
 121   0.0000       0.352592         9.5945 
 122   0.0000       0.358709         9.7610 
 123   0.0000       0.364493         9.9184 
 124   0.0000       0.371629        10.1125 
 125   0.0000       0.385486        10.4896 
 126   0.0000       0.390928        10.6377 
 127   0.0000       0.401784        10.9331 
 128   0.0000       0.408572        11.1178 
 129   0.0000       0.429273        11.6811 
 130   0.0000       0.432854        11.7785 
 131   0.0000       0.435816        11.8592 
 132   0.0000       0.438100        11.9213 
 133   0.0000       0.447825        12.1859 
 134   0.0000       0.453849        12.3499 
 135   0.0000       0.459787        12.5114 
 136   0.0000       0.464195        12.6314 
 137   0.0000       0.470895        12.8137 
 138   0.0000       0.471457        12.8290 
 139   0.0000       0.472810        12.8658 
 140   0.0000       0.477070        12.9817 
 141   0.0000       0.483821        13.1654 
 142   0.0000       0.490817        13.3558 
 143   0.0000       0.493073        13.4172 
 144   0.0000       0.501544        13.6477 
 145   0.0000       0.501738        13.6530 
 146   0.0000       0.513996        13.9865 
 147   0.0000       0.520132        14.1535 
 148   0.0000       0.529323        14.4036 
 149   0.0000       0.539878        14.6908 
 150   0.0000       0.544664        14.8211 
 151   0.0000       0.546820        14.8797 
 152   0.0000       0.561061        15.2672 
 153   0.0000       0.562214        15.2986 
 154   0.0000       0.566379        15.4120 
 155   0.0000       0.590576        16.0704 
 156   0.0000       0.591172        16.0866 
 157   0.0000       0.595938        16.2163 
 158   0.0000       0.601798        16.3758 
 159   0.0000       0.617988        16.8163 
 160   0.0000       0.620204        16.8766 
 161   0.0000       0.621341        16.9076 
 162   0.0000       0.634802        17.2738 
 163   0.0000       0.637152        17.3378 
 164   0.0000       0.641195        17.4478 
 165   0.0000       0.646667        17.5967 
 166   0.0000       0.648883        17.6570 
 167   0.0000       0.650656        17.7052 
 168   0.0000       0.662141        18.0178 
 169   0.0000       0.665223        18.1016 
 170   0.0000       0.665984        18.1223 
 171   0.0000       0.669997        18.2315 
 172   0.0000       0.675343        18.3770 
 173   0.0000       0.685397        18.6506 
 174   0.0000       0.692968        18.8566 
 175   0.0000       0.700595        19.0641 
 176   0.0000       0.708687        19.2844 
 177   0.0000       0.719422        19.5765 
 178   0.0000       0.721385        19.6299 
 179   0.0000       0.729803        19.8589 
 180   0.0000       0.731815        19.9137 
 181   0.0000       0.734202        19.9786 
 182   0.0000       0.748160        20.3585 
 183   0.0000       0.754645        20.5349 
 184   0.0000       0.757506        20.6128 
 185   0.0000       0.764466        20.8022 
 186   0.0000       0.779902        21.2222 
 187   0.0000       0.785421        21.3724 
 188   0.0000       0.787194        21.4206 
 189   0.0000       0.797983        21.7142 
 190   0.0000       0.806299        21.9405 
 191   0.0000       0.825632        22.4666 
 192   0.0000       0.838528        22.8175 
 193   0.0000       0.849969        23.1288 
 194   0.0000       0.855269        23.2730 
 195   0.0000       0.860547        23.4167 
 196   0.0000       0.864770        23.5316 
 197   0.0000       0.880481        23.9591 
 198   0.0000       0.894762        24.3477 
 199   0.0000       0.898777        24.4570 
 200   0.0000       0.922311        25.0974 
 201   0.0000       0.941955        25.6319 
 202   0.0000       0.945618        25.7316 
 203   0.0000       0.963213        26.2103 
 204   0.0000       0.986020        26.8310 
 205   0.0000       1.006365        27.3846 
 206   0.0000       1.027654        27.9639 
 207   0.0000       1.037404        28.2292 
 208   0.0000       1.059840        28.8397 
 209   0.0000       1.084420        29.5086 
 210   0.0000       1.103808        30.0361 
 211   0.0000       1.107726        30.1428 
 212   0.0000       1.124715        30.6051 
 213   0.0000       1.133211        30.8362 
 214   0.0000       1.159826        31.5605 
 215   0.0000       1.164157        31.6783 
 216   0.0000       1.173731        31.9388 
 217   0.0000       1.186347        32.2821 
 218   0.0000       1.201226        32.6870 
 219   0.0000       1.211546        32.9678 
 220   0.0000       1.215015        33.0622 
 221   0.0000       1.216908        33.1138 
 222   0.0000       1.221131        33.2287 
 223   0.0000       1.227134        33.3920 
 224   0.0000       1.231533        33.5117 
 225   0.0000       1.237469        33.6732 
 226   0.0000       1.244849        33.8741 
 227   0.0000       1.246937        33.9309 
 228   0.0000       1.257945        34.2304 
 229   0.0000       1.260009        34.2866 
 230   0.0000       1.268356        34.5137 
 231   0.0000       1.273087        34.6424 
 232   0.0000       1.289801        35.0973 
 233   0.0000       1.291464        35.1425 
 234   0.0000       1.295916        35.2637 
 235   0.0000       1.323833        36.0233 
 236   0.0000       1.331848        36.2414 
 237   0.0000       1.337270        36.3890 
 238   0.0000       1.343738        36.5650 
 239   0.0000       1.347423        36.6652 
 240   0.0000       1.352434        36.8016 
 241   0.0000       1.371503        37.3205 
 242   0.0000       1.378709        37.5166 
 243   0.0000       1.386142        37.7188 
 244   0.0000       1.388771        37.7904 
 245   0.0000       1.405948        38.2578 
 246   0.0000       1.475980        40.1635 
 247   0.0000       1.501342        40.8536 
 248   0.0000       1.506341        40.9896 
 249   0.0000       1.507428        41.0192 
 250   0.0000       1.518781        41.3281 
 251   0.0000       1.609788        43.8046 
 252   0.0000       1.619057        44.0568 
 253   0.0000       1.621845        44.1327 
 254   0.0000       1.626121        44.2490 
 255   0.0000       1.648531        44.8588 
 256   0.0000       1.652146        44.9572 
 257   0.0000       1.652618        44.9700 
 258   0.0000       1.660379        45.1812 
 259   0.0000       1.675598        45.5954 
 260   0.0000       1.676290        45.6142 
 261   0.0000       1.680778        45.7363 
 262   0.0000       1.691150        46.0185 
 263   0.0000       1.696046        46.1518 
 264   0.0000       1.707879        46.4737 
 265   0.0000       1.716417        46.7061 
 266   0.0000       1.719837        46.7991 
 267   0.0000       1.731509        47.1168 
 268   0.0000       1.735002        47.2118 
 269   0.0000       1.741739        47.3951 
 270   0.0000       1.746818        47.5333 
 271   0.0000       1.754341        47.7381 
 272   0.0000       1.760753        47.9125 
 273   0.0000       1.763142        47.9775 
 274   0.0000       1.764555        48.0160 
 275   0.0000       1.777470        48.3674 
 276   0.0000       1.781538        48.4781 
 277   0.0000       1.793009        48.7902 
 278   0.0000       1.798536        48.9406 
 279   0.0000       1.804816        49.1115 
 280   0.0000       1.819935        49.5230 
 281   0.0000       1.845611        50.2216 
 282   0.0000       1.847237        50.2659 
 283   0.0000       1.864833        50.7447 
 284   0.0000       1.880696        51.1763 
 285   0.0000       1.900685        51.7203 
 286   0.0000       1.902874        51.7798 
 287   0.0000       1.919029        52.2194 
 288   0.0000       1.926103        52.4119 
 289   0.0000       1.935256        52.6610 
 290   0.0000       1.946123        52.9567 
 291   0.0000       1.952872        53.1404 
 292   0.0000       1.967453        53.5371 
 293   0.0000       1.976773        53.7907 
 294   0.0000       1.991473        54.1907 
 295   0.0000       2.001347        54.4594 
 296   0.0000       2.001938        54.4755 
 297   0.0000       2.032390        55.3042 
 298   0.0000       2.035798        55.3969 
 299   0.0000       2.045234        55.6536 
 300   0.0000       2.050796        55.8050 
 301   0.0000       2.060295        56.0635 
 302   0.0000       2.064965        56.1905 
 303   0.0000       2.080515        56.6137 
 304   0.0000       2.089330        56.8536 
 305   0.0000       2.096116        57.0382 
 306   0.0000       2.097479        57.0753 
 307   0.0000       2.135628        58.1134 
 308   0.0000       2.140712        58.2517 
 309   0.0000       2.144540        58.3559 
 310   0.0000       2.148966        58.4763 
 311   0.0000       2.170732        59.0686 
 312   0.0000       2.186433        59.4959 
 313   0.0000       2.191093        59.6227 
 314   0.0000       2.199922        59.8629 
 315   0.0000       2.208362        60.0926 
 316   0.0000       2.214422        60.2575 
 317   0.0000       2.221381        60.4468 
 318   0.0000       2.230620        60.6982 
 319   0.0000       2.246870        61.1404 
 320   0.0000       2.253538        61.3219 
 321   0.0000       2.256717        61.4084 
 322   0.0000       2.263784        61.6007 
 323   0.0000       2.275152        61.9100 
 324   0.0000       2.286121        62.2085 
 325   0.0000       2.295761        62.4708 
 326   0.0000       2.303366        62.6778 
 327   0.0000       2.305542        62.7370 
 328   0.0000       2.306545        62.7643 
 329   0.0000       2.341005        63.7020 
 330   0.0000       2.367444        64.4214 
 331   0.0000       2.369343        64.4731 
 332   0.0000       2.373555        64.5877 
 333   0.0000       2.397024        65.2263 
 334   0.0000       2.425003        65.9877 
 335   0.0000       2.425575        66.0033 
 336   0.0000       2.467757        67.1511 
 337   0.0000       2.470463        67.2247 
 338   0.0000       2.504371        68.1474 
 339   0.0000       2.507787        68.2403 
 340   0.0000       2.519458        68.5579 
 341   0.0000       2.522907        68.6518 
 342   0.0000       2.553897        69.4951 
 343   0.0000       2.567575        69.8673 
 344   0.0000       2.591959        70.5308 
 345   0.0000       2.597429        70.6796 
 346   0.0000       2.599021        70.7229 
 347   0.0000       2.638740        71.8038 
 348   0.0000       2.647643        72.0460 
 349   0.0000       2.662500        72.4503 
 350   0.0000       2.679252        72.9062 
 351   0.0000       2.680726        72.9463 
 352   0.0000       2.690687        73.2173 
 353   0.0000       2.699496        73.4570 
 354   0.0000       2.725097        74.1537 
 355   0.0000       2.757437        75.0337 
 356   0.0000       2.767428        75.3055 
 357   0.0000       2.768952        75.3470 
 358   0.0000       2.773574        75.4728 
 359   0.0000       2.814040        76.5739 
 360   0.0000       2.849685        77.5439 
 361   0.0000       2.861968        77.8781 
 362   0.0000       2.868740        78.0624 
 363   0.0000       2.895013        78.7773 
 364   0.0000       2.900127        78.9165 
 365   0.0000       2.911411        79.2235 
 366   0.0000       2.944731        80.1302 
 367   0.0000       2.965528        80.6961 
 368   0.0000       2.966721        80.7286 
 369   0.0000       2.967090        80.7386 
 370   0.0000       2.994848        81.4939 
 371   0.0000       3.003823        81.7382 
 372   0.0000       3.013372        81.9980 
 373   0.0000       3.037678        82.6594 
 374   0.0000       3.103301        84.4451 
 375   0.0000       3.148473        85.6743 
 376   0.0000       3.193936        86.9114 
 377   0.0000       3.258877        88.6785 
 378   0.0000       3.267551        88.9146 
 379   0.0000       3.279122        89.2295 
 380   0.0000       3.374061        91.8129 
 381   0.0000       3.413004        92.8726 
 382   0.0000       3.464888        94.2844 
 383   0.0000       3.533155        96.1420 
 384   0.0000       3.582760        97.4918 
 385   0.0000       3.635088        98.9158 
 386   0.0000       3.776918       102.7752 

                    ********************************
                    * MULLIKEN POPULATION ANALYSIS *
                    ********************************

-----------------------
MULLIKEN ATOMIC CHARGES
-----------------------
   0 C :    0.060373
   1 C :   -0.022633
   2 C :   -0.030607
   3 C :    0.071075
   4 C :   -0.012008
   5 C :   -0.028858
   6 C :    0.056016
   7 C :    0.102692
   8 C :   -0.044981
   9 C :   -0.025924
  10 C :    0.061322
  11 C :   -0.006369
  12 C :   -0.043585
  13 C :    0.084095
  14 C :    0.055240
  15 C :    0.066259
  16 C :    0.023438
  17 C :   -0.020989
  18 C :   -0.123348
  19 C :    0.074870
  20 C :   -0.099243
  21 O :   -0.183542
  22 N :    0.034084
  23 H :   -0.026703
  24 H :   -0.030054
  25 H :   -0.031115
  26 H :   -0.030650
  27 H :   -0.040376
  28 H :   -0.031906
  29 H :   -0.029805
  30 H :   -0.030312
  31 H :    0.002993
  32 H :   -0.016327
  33 H :    0.034807
  34 H :   -0.003522
  35 H :    0.185595
Sum of atomic charges:   -0.0000000

--------------------------------
MULLIKEN REDUCED ORBITAL CHARGES
--------------------------------
  0 C s       :     3.107805  s :     3.107805
      pz      :     1.016618  p :     2.791308
      px      :     0.832951
      py      :     0.941739
      dz2     :     0.003172  d :     0.040515
      dxz     :     0.005664
      dyz     :     0.005920
      dx2y2   :     0.012933
      dxy     :     0.012826
  1 C s       :     3.224572  s :     3.224572
      pz      :     0.973177  p :     2.763064
      px      :     0.970988
      py      :     0.818899
      dz2     :     0.002608  d :     0.034998
      dxz     :     0.007150
      dyz     :     0.002270
      dx2y2   :     0.012793
      dxy     :     0.010176
  2 C s       :     3.244848  s :     3.244848
      pz      :     0.998111  p :     2.751132
      px      :     0.812737
      py      :     0.940283
      dz2     :     0.002630  d :     0.034627
      dxz     :     0.003643
      dyz     :     0.005124
      dx2y2   :     0.011588
      dxy     :     0.011642
  3 C s       :     3.114038  s :     3.114038
      pz      :     0.956714  p :     2.771864
      px      :     0.961322
      py      :     0.853828
      dz2     :     0.003230  d :     0.043023
      dxz     :     0.005958
      dyz     :     0.006942
      dx2y2   :     0.013189
      dxy     :     0.013705
  4 C s       :     3.229190  s :     3.229190
      pz      :     0.996098  p :     2.748100
      px      :     0.841692
      py      :     0.910310
      dz2     :     0.002624  d :     0.034718
      dxz     :     0.002710
      dyz     :     0.006128
      dx2y2   :     0.010445
      dxy     :     0.012811
  5 C s       :     3.234080  s :     3.234080
      pz      :     0.975280  p :     2.759827
      px      :     0.872741
      py      :     0.911806
      dz2     :     0.002604  d :     0.034951
      dxz     :     0.002910
      dyz     :     0.006416
      dx2y2   :     0.010551
      dxy     :     0.012469
  6 C s       :     3.149698  s :     3.149698
      pz      :     0.999179  p :     2.753886
      px      :     0.900440
      py      :     0.854267
      dz2     :     0.003203  d :     0.040399
      dxz     :     0.005559
      dyz     :     0.006261
      dx2y2   :     0.012429
      dxy     :     0.012948
  7 C s       :     3.102050  s :     3.102050
      pz      :     0.966918  p :     2.753004
      px      :     0.827117
      py      :     0.958969
[...]
     88       0.023948  -0.013238   0.078350  -0.074103  -0.003437  -0.000118
     89      -0.000396   0.000220  -0.001318   0.001301   0.000051   0.000001
     90       0.118740  -0.059796   0.387627  -0.737880  -0.028722  -0.000001
     91      -0.065799   0.033241  -0.215127   0.418423   0.016273   0.000041
     92       0.009413  -0.004749   0.030758  -0.059251  -0.002307  -0.000003
     93      -0.218399   0.108394  -0.688097  -0.421249  -0.015270  -0.000068
     94      -0.129688   0.064772  -0.416376  -0.256751  -0.009355  -0.000065
     95       0.003124  -0.001586   0.010509   0.006571   0.000242   0.000002
     96       0.242942   0.734090   0.040399  -0.014251   0.360613   0.001458
     97       0.143701   0.434203   0.023934  -0.008528   0.216658   0.001513
     98       0.004587   0.013854   0.000761  -0.000257   0.006404  -0.000050
     99       0.108607  -0.026646  -0.144859  -0.042158  -0.001713  -0.000040
    100       0.078085  -0.019023  -0.106288  -0.032145  -0.001330  -0.000052
    101      -0.002722   0.000654   0.003845   0.001236   0.000052   0.000003
    102       0.006302   0.021162   0.002048  -0.000606   0.015463   0.002965
    103       0.004813   0.016256   0.001561  -0.000491   0.012853   0.010537
    104       0.000110   0.000362   0.000033  -0.000010   0.000238  -0.000383
    105       0.000538   0.001742   0.000088  -0.000065   0.000731   0.103257
    106      -0.000817  -0.002001  -0.000128  -0.000050  -0.001365   0.991589
    107       0.000066   0.000182   0.000010  -0.000001   0.000100  -0.044789


-----------
IR SPECTRUM
-----------

 Mode   freq       eps      Int      T**2         TX        TY        TZ
       cm**-1   L/(mol*cm) km/mol    a.u.
----------------------------------------------------------------------------
  8:     26.48   0.000175    0.88  0.002062  (-0.002234  0.003455  0.045228)
  9:     65.39   0.000051    0.26  0.000242  (-0.000119  0.002475  0.015343)
 10:     71.95   0.000400    2.02  0.001737  ( 0.017674  0.037657 -0.002519)
 11:     99.64   0.000395    2.00  0.001238  (-0.002710  0.002008  0.035020)
 12:    121.08   0.000447    2.26  0.001153  (-0.030230 -0.015434 -0.000973)
 13:    142.39   0.000295    1.49  0.000646  ( 0.001956 -0.001113 -0.025308)
 14:    193.29   0.000044    0.22  0.000072  ( 0.001226  0.001366 -0.008264)
 15:    220.57   0.001424    7.20  0.002015  ( 0.001787 -0.003677 -0.044706)
 16:    221.13   0.000241    1.22  0.000340  ( 0.008253  0.016430 -0.001426)
 17:    255.32   0.000192    0.97  0.000235  (-0.008551 -0.012683  0.000730)
 18:    260.95   0.000060    0.30  0.000072  ( 0.000903 -0.000224 -0.008429)
 19:    285.65   0.002291   11.58  0.002502  (-0.003000  0.002834  0.049853)
 20:    316.30   0.000818    4.13  0.000807  (-0.019409  0.020454 -0.003466)
 21:    332.17   0.015053   76.07  0.014142  ( 0.007000 -0.006579 -0.118532)
 22:    352.55   0.000561    2.83  0.000496  (-0.017124  0.013875 -0.003243)
 23:    377.87   0.003560   17.99  0.002940  (-0.003004  0.003596  0.054020)
 24:    420.97   0.001806    9.13  0.001339  ( 0.020936 -0.029831  0.003235)
 25:    442.56   0.001533    7.75  0.001081  ( 0.022251 -0.024094  0.002286)
 26:    449.83   0.000037    0.19  0.000026  ( 0.000940 -0.001034 -0.004877)
 27:    493.72   0.000514    2.60  0.000325  ( 0.000688 -0.001692 -0.017926)
 28:    510.25   0.000651    3.29  0.000398  ( 0.009418 -0.017486  0.001927)
 29:    514.58   0.000120    0.61  0.000073  ( 0.006398  0.005637 -0.000470)
 30:    526.06   0.000017    0.08  0.000010  (-0.000023 -0.000024 -0.003154)
 31:    531.42   0.001790    9.05  0.001051  ( 0.007773 -0.031372  0.002578)
 32:    562.83   0.000464    2.35  0.000257  (-0.009401  0.012946 -0.001157)
 33:    564.62   0.000000    0.00  0.000000  (-0.000010 -0.000037  0.000162)
 34:    583.24   0.000153    0.77  0.000082  (-0.000268  0.000964  0.008978)
 35:    621.83   0.003375   17.06  0.001694  ( 0.018303 -0.036695  0.003483)
 36:    633.42   0.001150    5.81  0.000566  (-0.012595  0.020072 -0.002213)
 37:    679.57   0.000019    0.10  0.000009  (-0.000512  0.000196 -0.002898)
 38:    703.03   0.000233    1.17  0.000103  ( 0.006030 -0.008128  0.000881)
 39:    718.77   0.000973    4.92  0.000423  (-0.000726  0.001475  0.020493)
 40:    755.16   0.002826   14.28  0.001168  ( 0.000934 -0.002248 -0.034086)
 41:    764.73   0.000974    4.92  0.000398  (-0.012256  0.015701 -0.000914)
 42:    784.32   0.000290    1.47  0.000115  (-0.007413  0.007731 -0.000792)
 43:    815.61   0.000057    0.29  0.000022  ( 0.001220 -0.002087 -0.003996)
 44:    816.30   0.010493   53.03  0.004011  ( 0.030028 -0.055462  0.005791)
 45:    832.46   0.002556   12.92  0.000958  ( 0.001354 -0.002975 -0.030780)
 46:    853.96   0.000021    0.11  0.000008  (-0.001039  0.000811  0.002457)
 47:    858.69   0.002700   13.64  0.000981  ( 0.022020 -0.022128  0.002590)
 48:    875.96   0.007360   37.19  0.002622  ( 0.002194 -0.004288 -0.050977)
 49:    886.16   0.001423    7.19  0.000501  (-0.001385  0.002775  0.022171)
 50:    894.64   0.001767    8.93  0.000616  (-0.000173  0.001140  0.024800)
 51:    944.83   0.000056    0.28  0.000019  (-0.000361  0.000128  0.004292)
 52:    947.77   0.006914   34.94  0.002276  (-0.003174  0.004184  0.047422)
 53:    984.62   0.001613    8.15  0.000511  (-0.008511  0.019418  0.007865)
 54:    984.97   0.003186   16.10  0.001009  (-0.001150  0.003016 -0.031604)
 55:    990.68   0.000043    0.22  0.000013  ( 0.000113  0.000525  0.003633)
 56:    999.84   0.001169    5.91  0.000365  ( 0.011504 -0.015155  0.001704)
 57:   1001.72   0.001200    6.06  0.000374  ( 0.000732 -0.001785 -0.019239)
 58:   1012.06   0.000052    0.27  0.000016  (-0.000211  0.000301  0.004006)
 59:   1017.64   0.000001    0.01  0.000000  ( 0.000160 -0.000101  0.000621)
 60:   1040.36   0.000089    0.45  0.000027  (-0.004666 -0.002228 -0.000001)
 61:   1116.59   0.001693    8.56  0.000473  (-0.007901  0.020194 -0.001737)
 62:   1131.45   0.000139    0.70  0.000038  ( 0.005776 -0.002226  0.000397)
 63:   1167.96   0.002264   11.44  0.000605  (-0.002171  0.024450 -0.001543)
 64:   1184.53   0.000401    2.03  0.000106  (-0.005622  0.008572 -0.000819)
 65:   1195.58   0.000213    1.08  0.000056  ( 0.005741 -0.004746  0.000375)
 66:   1204.14   0.005891   29.77  0.001527  (-0.036640  0.013364 -0.002352)
 67:   1209.58   0.016225   82.00  0.004186  ( 0.055345 -0.033192  0.004606)
 68:   1231.69   0.079734  402.94  0.020202  ( 0.085233 -0.113139  0.011680)
 69:   1250.53   0.051062  258.04  0.012742  ( 0.062880 -0.093263  0.009500)
 70:   1265.69   0.008871   44.83  0.002187  (-0.020623  0.041769 -0.004158)
 71:   1269.80   0.001285    6.49  0.000316  (-0.001704  0.017617 -0.001603)
 72:   1282.05   0.002264   11.44  0.000551  ( 0.017623 -0.015385  0.001945)
 73:   1283.93   0.011853   59.90  0.002881  (-0.041183  0.034179 -0.004088)
 74:   1331.78   0.009824   49.65  0.002302  ( 0.026581 -0.039745  0.003967)
 75:   1335.48   0.002518   12.72  0.000588  ( 0.014919 -0.019022  0.001978)
 76:   1351.35   0.000799    4.04  0.000184  (-0.008967 -0.010200  0.000098)
 77:   1373.73   0.000046    0.23  0.000010  (-0.002575  0.001930 -0.000181)
 78:   1385.06   0.014176   71.64  0.003194  (-0.046057  0.032442 -0.004497)
 79:   1406.41   0.001077    5.44  0.000239  (-0.006956  0.013736 -0.001340)
 80:   1412.10   0.004338   21.92  0.000959  ( 0.020419 -0.023113  0.002735)
 81:   1425.16   0.001261    6.37  0.000276  (-0.003223 -0.016266  0.001072)
 82:   1443.75   0.000628    3.17  0.000136  (-0.005240  0.010367 -0.000927)
 83:   1469.01   0.001341    6.78  0.000285  (-0.014056  0.009255 -0.001302)
 84:   1505.63   0.000563    2.84  0.000117  ( 0.007830  0.007433 -0.000281)
 85:   1537.08   0.000551    2.78  0.000112  ( 0.010535  0.000852  0.000263)
 86:   1547.77   0.004656   23.53  0.000939  ( 0.013263 -0.027485  0.002713)
 87:   1575.87   0.003924   19.83  0.000777  ( 0.018629 -0.020614  0.002246)
 88:   1622.51   0.001079    5.45  0.000208  ( 0.002951 -0.014054  0.001155)
 89:   1637.91   0.062636  316.54  0.011934  (-0.059002  0.091466 -0.009306)
 90:   1657.76   0.006484   32.77  0.001221  ( 0.000242 -0.034805  0.003017)
 91:   1663.80   0.020580  104.00  0.003860  ( 0.035260 -0.050869  0.005393)
 92:   1674.93   0.000769    3.89  0.000143  (-0.001629 -0.011837  0.000703)
 93:   1733.74   0.083813  423.56  0.015086  (-0.061934  0.105613 -0.009801)
 94:   2336.54   0.028886  145.98  0.003858  ( 0.039009 -0.048036  0.005372)
 95:   3154.87   0.002180   11.02  0.000216  ( 0.014563  0.001725  0.000795)
 96:   3171.40   0.000137    0.69  0.000013  (-0.001700  0.003244 -0.000270)
 97:   3174.21   0.000204    1.03  0.000020  ( 0.000678  0.004409 -0.000338)
 98:   3174.55   0.002514   12.71  0.000247  ( 0.015678 -0.000989  0.000602)
 99:   3176.11   0.003152   15.93  0.000310  ( 0.016512 -0.005981  0.001120)
100:   3179.25   0.000817    4.13  0.000080  (-0.007225 -0.005290  0.000126)
101:   3193.92   0.004836   24.44  0.000473  ( 0.006588  0.020671 -0.001357)
102:   3199.83   0.001552    7.84  0.000151  (-0.007032 -0.010084  0.000504)
103:   3200.07   0.002193   11.08  0.000214  (-0.003437  0.014158 -0.001242)
104:   3200.68   0.000203    1.03  0.000020  ( 0.004080 -0.001752  0.000303)
105:   3222.26   0.002946   14.89  0.000285  ( 0.015885 -0.005651  0.001038)
106:   3223.69   0.002666   13.48  0.000258  (-0.015360  0.004609 -0.000975)
107:   3849.90   0.063985  323.35  0.005186  (-0.022790  0.068125 -0.005100)

* The epsilon (eps) is given for a Dirac delta lineshape.
** The dipole moment derivative (T) already includes vibrational overlap.

The first frequency considered to be a vibration is 8
The total number of vibrations considered is 100


--------------------------
THERMOCHEMISTRY AT 298.15K
--------------------------

Temperature         ... 298.15 K
Pressure            ... 1.00 atm
Total Mass          ... 295.34 AMU

Throughout the following assumptions are being made:
  (1) The electronic state is orbitally nondegenerate
  (2) There are no thermally accessible electronically excited states
  (3) Hindered rotations indicated by low frequency modes are not
      treated as such but are treated as vibrations and this may
      cause some error
  (4) All equations used are the standard statistical mechanics
      equations for an ideal gas
  (5) All vibrations are strictly harmonic

freq.      26.48  E(vib)   ...       0.56 
freq.      65.39  E(vib)   ...       0.50 
freq.      71.95  E(vib)   ...       0.50 
freq.      99.64  E(vib)   ...       0.46 
freq.     121.08  E(vib)   ...       0.44 
freq.     142.39  E(vib)   ...       0.41 
freq.     193.29  E(vib)   ...       0.36 
freq.     220.57  E(vib)   ...       0.33 
freq.     221.13  E(vib)   ...       0.33 
freq.     255.32  E(vib)   ...       0.30 
freq.     260.95  E(vib)   ...       0.30 
freq.     285.65  E(vib)   ...       0.28 
freq.     316.30  E(vib)   ...       0.25 
freq.     332.17  E(vib)   ...       0.24 
freq.     352.55  E(vib)   ...       0.22 
freq.     377.87  E(vib)   ...       0.21 
freq.     420.97  E(vib)   ...       0.18 
freq.     442.56  E(vib)   ...       0.17 
freq.     449.83  E(vib)   ...       0.17 
freq.     493.72  E(vib)   ...       0.14 
freq.     510.25  E(vib)   ...       0.14 
freq.     514.58  E(vib)   ...       0.13 
freq.     526.06  E(vib)   ...       0.13 
freq.     531.42  E(vib)   ...       0.13 
freq.     562.83  E(vib)   ...       0.11 
freq.     564.62  E(vib)   ...       0.11 
freq.     583.24  E(vib)   ...       0.11 
freq.     621.83  E(vib)   ...       0.09 
freq.     633.42  E(vib)   ...       0.09 
freq.     679.57  E(vib)   ...       0.08 
freq.     703.03  E(vib)   ...       0.07 
freq.     718.77  E(vib)   ...       0.07 
freq.     755.16  E(vib)   ...       0.06 
freq.     764.73  E(vib)   ...       0.06 
freq.     784.32  E(vib)   ...       0.05 
freq.     815.61  E(vib)   ...       0.05 
freq.     816.30  E(vib)   ...       0.05 
freq.     832.46  E(vib)   ...       0.04 
freq.     853.96  E(vib)   ...       0.04 
freq.     858.69  E(vib)   ...       0.04 
freq.     875.96  E(vib)   ...       0.04 
freq.     886.16  E(vib)   ...       0.04 
freq.     894.64  E(vib)   ...       0.03 
freq.     944.83  E(vib)   ...       0.03 
freq.     947.77  E(vib)   ...       0.03 
freq.     984.62  E(vib)   ...       0.02 
freq.     984.97  E(vib)   ...       0.02 
freq.     990.68  E(vib)   ...       0.02 
freq.     999.84  E(vib)   ...       0.02 
freq.    1001.72  E(vib)   ...       0.02 
freq.    1012.06  E(vib)   ...       0.02 
freq.    1017.64  E(vib)   ...       0.02 
freq.    1040.36  E(vib)   ...       0.02 
freq.    1116.59  E(vib)   ...       0.01 
freq.    1131.45  E(vib)   ...       0.01 
freq.    1167.96  E(vib)   ...       0.01 
freq.    1184.53  E(vib)   ...       0.01 
freq.    1195.58  E(vib)   ...       0.01 
freq.    1204.14  E(vib)   ...       0.01 
freq.    1209.58  E(vib)   ...       0.01 
freq.    1231.69  E(vib)   ...       0.01 
freq.    1250.53  E(vib)   ...       0.01 
freq.    1265.69  E(vib)   ...       0.01 
freq.    1269.80  E(vib)   ...       0.01 
freq.    1282.05  E(vib)   ...       0.01 
freq.    1283.93  E(vib)   ...       0.01 
freq.    1331.78  E(vib)   ...       0.01 
freq.    1335.48  E(vib)   ...       0.01 
freq.    1351.35  E(vib)   ...       0.01 
freq.    1373.73  E(vib)   ...       0.01 
freq.    1385.06  E(vib)   ...       0.00 
freq.    1406.41  E(vib)   ...       0.00 
freq.    1412.10  E(vib)   ...       0.00 
freq.    1425.16  E(vib)   ...       0.00 
freq.    1443.75  E(vib)   ...       0.00 
freq.    1469.01  E(vib)   ...       0.00 
freq.    1505.63  E(vib)   ...       0.00 
freq.    1537.08  E(vib)   ...       0.00 
freq.    1547.77  E(vib)   ...       0.00 
freq.    1575.87  E(vib)   ...       0.00 
freq.    1622.51  E(vib)   ...       0.00 
freq.    1637.91  E(vib)   ...       0.00 
freq.    1657.76  E(vib)   ...       0.00 
freq.    1663.80  E(vib)   ...       0.00 
freq.    1674.93  E(vib)   ...       0.00 
freq.    1733.74  E(vib)   ...       0.00 
freq.    2336.54  E(vib)   ...       0.00 
freq.    3154.87  E(vib)   ...       0.00 
freq.    3171.40  E(vib)   ...       0.00 
freq.    3174.21  E(vib)   ...       0.00 
freq.    3174.55  E(vib)   ...       0.00 
freq.    3176.11  E(vib)   ...       0.00 
freq.    3179.25  E(vib)   ...       0.00 
freq.    3193.92  E(vib)   ...       0.00 
freq.    3199.83  E(vib)   ...       0.00 
freq.    3200.07  E(vib)   ...       0.00 
freq.    3200.68  E(vib)   ...       0.00 
freq.    3222.26  E(vib)   ...       0.00 
freq.    3223.69  E(vib)   ...       0.00 
freq.    3849.90  E(vib)   ...       0.00 

------------
INNER ENERGY
------------

The inner energy is: U= E(el) + E(ZPE) + E(vib) + E(rot) + E(trans)
    E(el)   - is the total energy from the electronic structure calculation
              = E(kin-el) + E(nuc-el) + E(el-el) + E(nuc-nuc)
    E(ZPE)  - the the zero temperature vibrational energy from the frequency calculation
    E(vib)  - the the finite temperature correction to E(ZPE) due to population
              of excited vibrational states
    E(rot)  - is the rotational thermal energy
    E(trans)- is the translational thermal energy

Summary of contributions to the inner energy U:
Electronic energy                ...   -936.78871883 Eh
Zero point energy                ...      0.27726109 Eh     173.98 kcal/mol
Thermal vibrational correction   ...      0.01358616 Eh       8.53 kcal/mol
Thermal rotational correction    ...      0.00141627 Eh       0.89 kcal/mol
Thermal translational correction ...      0.00141627 Eh       0.89 kcal/mol
-----------------------------------------------------------------------
Total thermal energy                   -936.49503904 Eh


Summary of corrections to the electronic energy:
(perhaps to be used in another calculation)
Total thermal correction                  0.01641871 Eh      10.30 kcal/mol
Non-thermal (ZPE) correction              0.27726109 Eh     173.98 kcal/mol
-----------------------------------------------------------------------
Total correction                          0.29367980 Eh     184.29 kcal/mol


--------
ENTHALPY
--------

The enthalpy is H = U + kB*T
                kB is Boltzmann's constant
Total free energy                 ...   -936.49503904 Eh 
Thermal Enthalpy correction       ...      0.00094421 Eh       0.59 kcal/mol
-----------------------------------------------------------------------
Total Enthalpy                    ...   -936.49409483 Eh


Note: Only C1 symmetry has been detected, increase convergence thresholds 
      if your molecule has a higher symmetry. Symmetry factor of 1.0 is   
      used for the rotational entropy correction. 
 

Note: Rotational entropy computed according to Herzberg 
Infrared and Raman Spectra, Chapter V,1, Van Nostrand Reinhold, 1945 
Point Group:  C1, Symmetry Number:   1  
Rotational constants in cm-1:     0.026212     0.003928     0.003416 

Vibrational entropy computed according to the QRRHO of S. Grimme
Chem.Eur.J. 2012 18 9955


-------
ENTROPY
-------

The entropy contributions are T*S = T*(S(el)+S(vib)+S(rot)+S(trans))
     S(el)   - electronic entropy
     S(vib)  - vibrational entropy
     S(rot)  - rotational entropy
     S(trans)- translational entropy
The entropies will be listed as multiplied by the temperature to get
units of energy

Electronic entropy                ...      0.00000000 Eh      0.00 kcal/mol
Vibrational entropy               ...      0.02293086 Eh     14.39 kcal/mol
Rotational entropy                ...      0.01652619 Eh     10.37 kcal/mol
Translational entropy             ...      0.02040501 Eh     12.80 kcal/mol
-----------------------------------------------------------------------
Final entropy term                ...      0.05986206 Eh     37.56 kcal/mol

In case the symmetry of your molecule has not been determined correctly
or in case you have a reason to use a different symmetry number we print 
out the resulting rotational entropy values for sn=1,12 :
 --------------------------------------------------------
|  sn= 1 | S(rot)=       0.01652619 Eh     10.37 kcal/mol|
|  sn= 2 | S(rot)=       0.01587173 Eh      9.96 kcal/mol|
|  sn= 3 | S(rot)=       0.01548890 Eh      9.72 kcal/mol|
|  sn= 4 | S(rot)=       0.01521728 Eh      9.55 kcal/mol|
|  sn= 5 | S(rot)=       0.01500659 Eh      9.42 kcal/mol|
|  sn= 6 | S(rot)=       0.01483444 Eh      9.31 kcal/mol|
|  sn= 7 | S(rot)=       0.01468890 Eh      9.22 kcal/mol|
|  sn= 8 | S(rot)=       0.01456282 Eh      9.14 kcal/mol|
|  sn= 9 | S(rot)=       0.01445161 Eh      9.07 kcal/mol|
|  sn=10 | S(rot)=       0.01435213 Eh      9.01 kcal/mol|
|  sn=11 | S(rot)=       0.01426214 Eh      8.95 kcal/mol|
|  sn=12 | S(rot)=       0.01417999 Eh      8.90 kcal/mol|
 --------------------------------------------------------


-------------------
GIBBS FREE ENERGY
-------------------

The Gibbs free energy is G = H - T*S

Total enthalpy                    ...   -936.49409483 Eh 
Total entropy correction          ...     -0.05986206 Eh    -37.56 kcal/mol
-----------------------------------------------------------------------
Final Gibbs free energy         ...   -936.55395689 Eh

For completeness - the Gibbs free energy minus the electronic energy
G-E(el)                           ...      0.23476194 Eh    147.32 kcal/mol


Timings for individual modules:

Sum of individual times         ...     1829.140 sec (=  30.486 min)
GTO integral calculation        ...        5.992 sec (=   0.100 min)   0.3 %
SCF iterations                  ...      348.945 sec (=   5.816 min)  19.1 %
SCF Gradient evaluation         ...       33.507 sec (=   0.558 min)   1.8 %
Geometry relaxation             ...        0.880 sec (=   0.015 min)   0.0 %
Analytical frequency calculation...     1439.817 sec (=  23.997 min)  78.7 %
                             ****ORCA TERMINATED NORMALLY****
TOTAL RUN TIME: 0 days 0 hours 30 minutes 35 seconds 924 msec
