Start Job  on nano05

                                 *****************
                                 * O   R   C   A *
                                 *****************

                                            #,                                       
                                            ###                                      
                                            ####                                     
                                            #####                                    
                                            ######                                   
                                           ########,                                 
                                     ,,################,,,,,                         
                               ,,#################################,,                 
                          ,,##########################################,,             
                       ,#########################################, ''#####,          
                    ,#############################################,,   '####,        
                  ,##################################################,,,,####,       
                ,###########''''           ''''###############################       
              ,#####''   ,,,,##########,,,,          '''####'''          '####       
            ,##' ,,,,###########################,,,                        '##       
           ' ,,###''''                  '''############,,,                           
         ,,##''                                '''############,,,,        ,,,,,,###''
      ,#''                                            '''#######################'''  
     '                                                          ''''####''''         
             ,#######,   #######,   ,#######,      ##                                
            ,#'     '#,  ##    ##  ,#'     '#,    #''#        ######   ,####,        
            ##       ##  ##   ,#'  ##            #'  '#       #        #'  '#        
            ##       ##  #######   ##           ,######,      #####,   #    #        
            '#,     ,#'  ##    ##  '#,     ,#' ,#      #,         ##   #,  ,#        
             '#######'   ##     ##  '#######'  #'      '#     #####' # '####'        



                  #######################################################
                  #                        -***-                        #
                  #          Department of theory and spectroscopy      #
                  #    Directorship and core code : Frank Neese         #
                  #        Max Planck Institute fuer Kohlenforschung    #
                  #                Kaiser Wilhelm Platz 1               #
                  #                 D-45470 Muelheim/Ruhr               #
                  #                      Germany                        #
                  #                                                     #
                  #                  All rights reserved                #
                  #                        -***-                        #
                  #######################################################


                         Program Version 5.0.4 -  RELEASE  -


 With contributions from (in alphabetic order):
   Daniel Aravena         : Magnetic Suceptibility
   Michael Atanasov       : Ab Initio Ligand Field Theory (pilot matlab implementation)
   Alexander A. Auer      : GIAO ZORA, VPT2 properties, NMR spectrum
   Ute Becker             : Parallelization
   Giovanni Bistoni       : ED, misc. LED, open-shell LED, HFLD
   Martin Brehm           : Molecular dynamics
   Dmytro Bykov           : SCF Hessian
   Vijay G. Chilkuri      : MRCI spin determinant printing, contributions to CSF-ICE
   Dipayan Datta          : RHF DLPNO-CCSD density
   Achintya Kumar Dutta   : EOM-CC, STEOM-CC
   Dmitry Ganyushin       : Spin-Orbit,Spin-Spin,Magnetic field MRCI
   Miquel Garcia          : C-PCM and meta-GGA Hessian, CC/C-PCM, Gaussian charge scheme
   Yang Guo               : DLPNO-NEVPT2, F12-NEVPT2, CIM, IAO-localization
   Andreas Hansen         : Spin unrestricted coupled pair/coupled cluster methods
   Benjamin Helmich-Paris : MC-RPA, TRAH-SCF, COSX integrals
   Lee Huntington         : MR-EOM, pCC
   Robert Izsak           : Overlap fitted RIJCOSX, COSX-SCS-MP3, EOM
   Marcus Kettner         : VPT2
   Christian Kollmar      : KDIIS, OOCD, Brueckner-CCSD(T), CCSD density, CASPT2, CASPT2-K
   Simone Kossmann        : Meta GGA functionals, TD-DFT gradient, OOMP2, MP2 Hessian
   Martin Krupicka        : Initial AUTO-CI
   Lucas Lang             : DCDCAS
   Marvin Lechner         : AUTO-CI (C++ implementation), FIC-MRCC
   Dagmar Lenk            : GEPOL surface, SMD
   Dimitrios Liakos       : Extrapolation schemes; Compound Job, initial MDCI parallelization
   Dimitrios Manganas     : Further ROCIS development; embedding schemes
   Dimitrios Pantazis     : SARC Basis sets
   Anastasios Papadopoulos: AUTO-CI, single reference methods and gradients
   Taras Petrenko         : DFT Hessian,TD-DFT gradient, ASA, ECA, R-Raman, ABS, FL, XAS/XES, NRVS
   Peter Pinski           : DLPNO-MP2, DLPNO-MP2 Gradient
   Christoph Reimann      : Effective Core Potentials
   Marius Retegan         : Local ZFS, SOC
   Christoph Riplinger    : Optimizer, TS searches, QM/MM, DLPNO-CCSD(T), (RO)-DLPNO pert. Triples
   Tobias Risthaus        : Range-separated hybrids, TD-DFT gradient, RPA, STAB
   Michael Roemelt        : Original ROCIS implementation
   Masaaki Saitow         : Open-shell DLPNO-CCSD energy and density
   Barbara Sandhoefer     : DKH picture change effects
   Avijit Sen             : IP-ROCIS
   Kantharuban Sivalingam : CASSCF convergence, NEVPT2, FIC-MRCI
   Bernardo de Souza      : ESD, SOC TD-DFT
   Georgi Stoychev        : AutoAux, RI-MP2 NMR, DLPNO-MP2 response
   Willem Van den Heuvel  : Paramagnetic NMR
   Boris Wezisla          : Elementary symmetry handling
   Frank Wennmohs         : Technical directorship


 We gratefully acknowledge several colleagues who have allowed us to
 interface, adapt or use parts of their codes:
   Stefan Grimme, W. Hujo, H. Kruse, P. Pracht,  : VdW corrections, initial TS optimization,
                  C. Bannwarth, S. Ehlert          DFT functionals, gCP, sTDA/sTD-DF
   Ed Valeev, F. Pavosevic, A. Kumar             : LibInt (2-el integral package), F12 methods
   Garnet Chan, S. Sharma, J. Yang, R. Olivares  : DMRG
   Ulf Ekstrom                                   : XCFun DFT Library
   Mihaly Kallay                                 : mrcc  (arbitrary order and MRCC methods)
   Jiri Pittner, Ondrej Demel                    : Mk-CCSD
   Frank Weinhold                                : gennbo (NPA and NBO analysis)
   Christopher J. Cramer and Donald G. Truhlar   : smd solvation model
   Lars Goerigk                                  : TD-DFT with DH, B97 family of functionals
   V. Asgeirsson, H. Jonsson                     : NEB implementation
   FAccTs GmbH                                   : IRC, NEB, NEB-TS, DLPNO-Multilevel, CI-OPT
                                                   MM, QMMM, 2- and 3-layer-ONIOM, Crystal-QMMM,
                                                   LR-CPCM, SF, NACMEs, symmetry and pop. for TD-DFT,
                                                   nearIR, NL-DFT gradient (VV10), updates on ESD,
                                                   ML-optimized integration grids
   S Lehtola, MJT Oliveira, MAL Marques          : LibXC Library
   Liviu Ungur et al                             : ANISO software


 Your calculation uses the libint2 library for the computation of 2-el integrals
 For citations please refer to: http://libint.valeyev.net

 Your ORCA version has been built with support for libXC version: 5.1.0
 For citations please refer to: https://tddft.org/programs/libxc/

 This ORCA versions uses:
   CBLAS   interface :  Fast vector & matrix operations
   LAPACKE interface :  Fast linear algebra routines
   SCALAPACK package :  Parallel linear algebra routines
   Shared memory     :  Shared parallel matrices
   BLAS/LAPACK       :  OpenBLAS 0.3.15  USE64BITINT DYNAMIC_ARCH NO_AFFINITY Zen SINGLE_THREADED
        Core in use  :  Zen
   Copyright (c) 2011-2014, The OpenBLAS Project


================================================================================

----- Orbital basis set information -----
Your calculation utilizes the basis: def2-SVP
   F. Weigend and R. Ahlrichs, Phys. Chem. Chem. Phys. 7, 3297 (2005).

----- AuxJ basis set information -----
Your calculation utilizes the auxiliary basis: def2/J
   F. Weigend, Phys. Chem. Chem. Phys. 8, 1057 (2006).

================================================================================
                                        WARNINGS
                       Please study these warnings very carefully!
================================================================================


WARNING: Geometry Optimization
  ===> : Switching off AutoStart
         For restart on a previous wavefunction, please use MOREAD

INFO   : the flag for use of the SHARK integral package has been found!

================================================================================
                                       INPUT FILE
================================================================================
NAME = NC_OH.inp
|  1> ! B3LYP def2-SVP Opt PAL8 FREQ 
|  2> #defgrid3 slowconv VeryTightSCF
|  3> *xyz 0 1
|  4>   C   -7.181673    2.676380   -0.233569
|  5>   C   -6.025116    3.346171   -0.197181
|  6>   C   -4.867706    2.679037   -0.097971
|  7>   C   -4.868227    1.342037   -0.097971
|  8>   C   -3.710654    0.673112   -0.086392
|  9>   C   -3.713097   -0.663450    0.022061
| 10>   C   -4.872863   -1.325629    0.085555
| 11>   C   -4.876956   -2.652183    0.252304
| 12>   C   -6.036708   -3.314386    0.315802
| 13>   C   -7.192936   -2.653800    0.170979
| 14>   C   -7.187210   -1.327112    0.005338
| 15>   C   -8.340689   -0.666270   -0.137287
| 16>   C   -8.339160    0.670762   -0.214577
| 17>   C   -7.182588    1.340528   -0.178187
| 18>   C   -6.026362    0.673987   -0.097971
| 19>   C   -6.028673   -0.659858   -0.006207
| 20>   C   -8.337316    3.342441   -0.325340
| 21>   C   -3.721298   -3.316534    0.355556
| 22>   C   -8.336401    4.678293   -0.380722
| 23>   C   -3.725392   -4.643089    0.522305
| 24>   C   -9.471299    5.332398   -0.470845
| 25>   O   -2.554175   -5.316384    0.626947
| 26>   N  -10.472222    5.909286   -0.550329
| 27>   H   -6.023974    4.444963   -0.248706
| 28>   H   -3.919078    3.229944   -0.016693
| 29>   H   -2.758363    1.217960   -0.165658
| 30>   H   -2.761802   -1.214533    0.058753
| 31>   H   -6.041367   -4.400994    0.486864
| 32>   H   -8.146261   -3.202317    0.188313
| 33>   H   -9.289647   -1.219972   -0.191074
| 34>   H   -9.289011    1.217629   -0.307954
| 35>   H   -9.288859    2.791379   -0.355277
| 36>   H   -2.767127   -2.771715    0.303314
| 37>   H   -7.384858    5.229356   -0.350784
| 38>   H   -4.679563   -5.187908    0.574547
| 39>   H   -2.759147   -6.259528    0.742055
| 40> **                         ****END OF INPUT****
================================================================================

                       *****************************
                       * Geometry Optimization Run *
                       *****************************

Geometry optimization settings:
Update method            Update   .... BFGS
Choice of coordinates    CoordSys .... Z-matrix Internals
Initial Hessian          InHess   .... Almoef's Model

Convergence Tolerances:
Energy Change            TolE     ....  5.0000e-06 Eh
Max. Gradient            TolMAXG  ....  3.0000e-04 Eh/bohr
RMS Gradient             TolRMSG  ....  1.0000e-04 Eh/bohr
Max. Displacement        TolMAXD  ....  4.0000e-03 bohr
RMS Displacement         TolRMSD  ....  2.0000e-03 bohr
Strict Convergence                ....  False
------------------------------------------------------------------------------
                        ORCA OPTIMIZATION COORDINATE SETUP
------------------------------------------------------------------------------

The optimization will be done in new redundant internal coordinates
Making redundant internal coordinates   ...  (new redundants) done
Evaluating the initial hessian          ...  (Almloef) done
Evaluating the coordinates              ...  done
Calculating the B-matrix                .... done
Calculating the G-matrix                .... done
Diagonalizing the G-matrix              .... done
Small eigenvalue found = 6.380e-03
Small eigenvalue found = 1.257e-02
Small eigenvalue found = 1.781e-02
The first mode is                       ....   94
The number of degrees of freedom        ....  102

    -----------------------------------------------------------------
                    Redundant Internal Coordinates


    -----------------------------------------------------------------
         Definition                    Initial Value    Approx d2E/dq
    -----------------------------------------------------------------
      1. B(C   1,C   0)                  1.3370         0.759097   
      2. B(C   2,C   1)                  1.3396         0.751900   
      3. B(C   3,C   2)                  1.3370         0.759096   
      4. B(C   4,C   3)                  1.3370         0.759095   
      5. B(C   5,C   4)                  1.3410         0.748141   
      6. B(C   6,C   5)                  1.3370         0.759095   
      7. B(C   7,C   6)                  1.3370         0.759098   
      8. B(C   8,C   7)                  1.3370         0.759095   
      9. B(C   9,C   8)                  1.3395         0.752207   
     10. B(C  10,C   9)                  1.3370         0.759094   
     11. B(C  11,C  10)                  1.3370         0.759097   
     12. B(C  12,C  11)                  1.3393         0.752806   
     13. B(C  13,C  12)                  1.3370         0.759095   
     14. B(C  13,C   0)                  1.3370         0.759096   
     15. B(C  14,C   3)                  1.3370         0.759098   
     16. B(C  14,C  13)                  1.3370         0.759095   
     17. B(C  15,C  14)                  1.3370         0.759097   
     18. B(C  15,C  10)                  1.3370         0.759096   
     19. B(C  15,C   6)                  1.3370         0.759097   
     20. B(C  16,C   0)                  1.3370         0.759095   
     21. B(C  17,C   7)                  1.3370         0.759096   
     22. B(C  18,C  16)                  1.3370         0.759096   
     23. B(C  19,C  17)                  1.3370         0.759095   
     24. B(C  20,C  18)                  1.3130         0.829062   
     25. B(O  21,C  19)                  1.3550         0.636379   
     26. B(N  22,C  20)                  1.1580         1.312250   
     27. B(H  23,C   1)                  1.1000         0.347111   
     28. B(H  24,C   2)                  1.1000         0.347111   
     29. B(H  25,C   4)                  1.1000         0.347111   
     30. B(H  26,C   5)                  1.1000         0.347111   
     31. B(H  27,C   8)                  1.1000         0.347111   
     32. B(H  28,C   9)                  1.1000         0.347111   
     33. B(H  29,C  11)                  1.1000         0.347111   
     34. B(H  30,C  12)                  1.1000         0.347111   
     35. B(H  31,C  16)                  1.1000         0.347112   
     36. B(H  32,C  17)                  1.1000         0.347112   
     37. B(H  33,C  18)                  1.1000         0.347111   
     38. B(H  34,C  19)                  1.1000         0.347112   
     39. B(H  35,O  21)                  0.9720         0.497533   
     40. A(C   1,C   0,C  16)          120.0000         0.467177   
     41. A(C   1,C   0,C  13)          120.0000         0.467177   
     42. A(C  13,C   0,C  16)          120.0000         0.467176   
     43. A(C   2,C   1,H  23)          120.0025         0.362403   
     44. A(C   0,C   1,H  23)          120.0026         0.362993   
     45. A(C   0,C   1,C   2)          119.9949         0.466362   
     46. A(C   1,C   2,C   3)          119.8464         0.466362   
     47. A(C   1,C   2,H  24)          120.0768         0.362403   
     48. A(C   3,C   2,H  24)          120.0768         0.362993   
     49. A(C   2,C   3,C  14)          120.0001         0.467177   
     50. A(C   2,C   3,C   4)          119.9987         0.467176   
     51. A(C   4,C   3,C  14)          119.9987         0.467177   
     52. A(C   5,C   4,H  25)          120.0727         0.362093   
     53. A(C   3,C   4,C   5)          119.8546         0.465934   
     54. A(C   3,C   4,H  25)          120.0727         0.362993   
     55. A(C   4,C   5,H  26)          120.0307         0.362093   
     56. A(C   4,C   5,C   6)          119.9385         0.465934   
     57. A(C   6,C   5,H  26)          120.0308         0.362993   
     58. A(C   5,C   6,C   7)          119.9988         0.467177   
     59. A(C   7,C   6,C  15)          119.9988         0.467177   
     60. A(C   5,C   6,C  15)          120.0000         0.467177   
     61. A(C   6,C   7,C   8)          120.0000         0.467177   
     62. A(C   8,C   7,C  17)          120.0000         0.467177   
     63. A(C   6,C   7,C  17)          120.0000         0.467177   
     64. A(C   9,C   8,H  27)          120.0211         0.362428   
     65. A(C   7,C   8,H  27)          120.0211         0.362993   
     66. A(C   7,C   8,C   9)          119.9578         0.466397   
     67. A(C  10,C   9,H  28)          120.0311         0.362993   
     68. A(C   8,C   9,H  28)          120.0311         0.362428   
     69. A(C   8,C   9,C  10)          119.9378         0.466397   
     70. A(C  11,C  10,C  15)          119.9988         0.467177   
     71. A(C   9,C  10,C  15)          120.0000         0.467176   
     72. A(C   9,C  10,C  11)          119.9987         0.467176   
     73. A(C  10,C  11,H  29)          120.0457         0.362993   
     74. A(C  10,C  11,C  12)          119.9087         0.466465   
     75. A(C  12,C  11,H  29)          120.0456         0.362477   
     76. A(C  13,C  12,H  30)          120.0156         0.362993   
     77. A(C  11,C  12,H  30)          120.0156         0.362477   
     78. A(C  11,C  12,C  13)          119.9688         0.466465   
     79. A(C  12,C  13,C  14)          119.9988         0.467176   
     80. A(C   0,C  13,C  14)          120.0000         0.467176   
     81. A(C   0,C  13,C  12)          119.9988         0.467177   
     82. A(C  13,C  14,C  15)          119.9988         0.467176   
     83. A(C   3,C  14,C  15)          119.9988         0.467177   
     84. A(C   3,C  14,C  13)          120.0000         0.467177   
     85. A(C  10,C  15,C  14)          119.9987         0.467177   
     86. A(C   6,C  15,C  14)          120.0000         0.467177   
     87. A(C   6,C  15,C  10)          119.9988         0.467177   
     88. A(C  18,C  16,H  31)          120.0000         0.362993   
     89. A(C   0,C  16,H  31)          120.0000         0.362993   
     90. A(C   0,C  16,C  18)          120.0000         0.467176   
     91. A(C  19,C  17,H  32)          120.0000         0.362993   
     92. A(C   7,C  17,H  32)          120.0000         0.362993   
     93. A(C   7,C  17,C  19)          120.0000         0.467176   
     94. A(C  20,C  18,H  33)          120.0000         0.368515   
     95. A(C  16,C  18,H  33)          120.0000         0.362993   
     96. A(C  16,C  18,C  20)          120.0000         0.474799   
     97. A(O  21,C  19,H  34)          120.0000         0.350107   
     98. A(C  17,C  19,H  34)          120.0000         0.362993   
     99. A(C  17,C  19,O  21)          120.0000         0.449390   
    100. L(C  18,C  20,N  22,C  16, 2) 180.0000         0.522089   
    101. L(C  18,C  20,N  22,C  16, 1) 180.0000         0.522089   
    102. A(C  19,O  21,H  35)          107.9999         0.368973   
    103. D(H  23,C   1,C   0,C  13)    179.6404         0.041191   
    104. D(H  23,C   1,C   0,C  16)     -0.3595         0.041191   
    105. D(C   2,C   1,C   0,C  13)     -0.3595         0.041191   
    106. D(C   2,C   1,C   0,C  16)    179.6405         0.041191   
    107. D(C   3,C   2,C   1,C   0)      3.0928         0.040338   
    108. D(C   3,C   2,C   1,H  23)   -176.9071         0.040338   
    109. D(H  24,C   2,C   1,H  23)      3.0930         0.040338   
    110. D(H  24,C   2,C   1,C   0)   -176.9071         0.040338   
    111. D(C  14,C   3,C   2,H  24)    175.1018         0.041191   
    112. D(C   4,C   3,C   2,C   1)    175.6748         0.041191   
    113. D(C   4,C   3,C   2,H  24)     -4.3252         0.041191   
    114. D(C  14,C   3,C   2,C   1)     -4.8982         0.041191   
    115. D(H  25,C   4,C   3,C   2)     -5.3515         0.041191   
    116. D(C   5,C   4,C   3,C   2)    174.6486         0.041191   
    117. D(C   5,C   4,C   3,C  14)     -4.7785         0.041191   
    118. D(H  25,C   4,C   3,C  14)    175.2214         0.041191   
    119. D(H  26,C   5,C   4,H  25)      1.6223         0.039897   
    120. D(C   6,C   5,C   4,C   3)      1.6222         0.039897   
    121. D(C   6,C   5,C   4,H  25)   -178.3777         0.039897   
    122. D(H  26,C   5,C   4,C   3)   -178.3778         0.039897   
    123. D(C  15,C   6,C   5,H  26)   -177.6572         0.041191   
    124. D(C  15,C   6,C   5,C   4)      2.3428         0.041191   
    125. D(C   7,C   6,C   5,H  26)      2.9157         0.041191   
    126. D(C   7,C   6,C   5,C   4)   -177.0843         0.041191   
    127. D(C  17,C   7,C   6,C  15)   -179.4271         0.041191   
    128. D(C  17,C   7,C   6,C   5)      0.0000         0.041191   
    129. D(C   8,C   7,C   6,C  15)      0.5729         0.041191   
    130. D(C   8,C   7,C   6,C   5)    180.0000         0.041191   
    131. D(H  27,C   8,C   7,C   6)   -177.9408         0.041191   
    132. D(C   9,C   8,C   7,C  17)   -177.9408         0.041191   
    133. D(C   9,C   8,C   7,C   6)      2.0593         0.041191   
    134. D(H  27,C   8,C   7,C  17)      2.0591         0.041191   
    135. D(H  28,C   9,C   8,H  27)     -2.1101         0.040374   
    136. D(H  28,C   9,C   8,C   7)    177.8898         0.040374   
    137. D(C  10,C   9,C   8,H  27)    177.8898         0.040374   
    138. D(C  10,C   9,C   8,C   7)     -2.1103         0.040374   
    139. D(C  15,C  10,C   9,H  28)    179.5291         0.041191   
    140. D(C  15,C  10,C   9,C   8)     -0.4707         0.041191   
    141. D(C  11,C  10,C   9,H  28)      0.1020         0.041191   
    142. D(C  11,C  10,C   9,C   8)   -179.8979         0.041191   
    143. D(H  29,C  11,C  10,C  15)    176.1735         0.041191   
    144. D(H  29,C  11,C  10,C   9)     -4.3993         0.041191   
    145. D(C  12,C  11,C  10,C  15)     -3.8265         0.041191   
    146. D(C  12,C  11,C  10,C   9)    175.6007         0.041191   
    147. D(H  30,C  12,C  11,H  29)      1.4491         0.040445   
    148. D(H  30,C  12,C  11,C  10)   -178.5509         0.040445   
    149. D(C  13,C  12,C  11,H  29)   -178.5509         0.040445   
    150. D(C  13,C  12,C  11,C  10)      1.4491         0.040445   
    151. D(C  14,C  13,C  12,H  30)   -178.3484         0.041191   
    152. D(C   0,C  13,C  12,H  30)      1.0786         0.041191   
    153. D(C   0,C  13,C  12,C  11)   -178.9213         0.041191   
    154. D(C  14,C  13,C   0,C  16)    179.4270         0.041191   
    155. D(C  14,C  13,C   0,C   1)     -0.5730         0.041191   
    156. D(C  14,C  13,C  12,C  11)      1.6516         0.041191   
    157. D(C  12,C  13,C   0,C  16)     -0.0000         0.041191   
    158. D(C  12,C  13,C   0,C   1)   -180.0000         0.041191   
    159. D(C   3,C  14,C  13,C  12)    178.1956         0.041191   
    160. D(C   3,C  14,C  13,C   0)     -1.2315         0.041191   
    161. D(C  15,C  14,C   3,C   4)      3.9725         0.041191   
    162. D(C  15,C  14,C   3,C   2)   -175.4545         0.041191   
    163. D(C  13,C  14,C   3,C   4)   -176.6004         0.041191   
    164. D(C  15,C  14,C  13,C   0)    178.1956         0.041191   
    165. D(C  13,C  14,C   3,C   2)      3.9725         0.041191   
    166. D(C  15,C  14,C  13,C  12)     -2.3774         0.041191   
    167. D(C  10,C  15,C  14,C  13)     -0.0000         0.041191   
    168. D(C   6,C  15,C  14,C  13)   -179.4270         0.041191   
    169. D(C   6,C  15,C  14,C   3)      0.0000         0.041191   
    170. D(C  14,C  15,C  10,C  11)      3.1045         0.041191   
    171. D(C  14,C  15,C  10,C   9)   -176.3227         0.041191   
    172. D(C   6,C  15,C  10,C  11)   -177.4685         0.041191   
    173. D(C   6,C  15,C  10,C   9)      3.1043         0.041191   
    174. D(C  14,C  15,C   6,C   7)    176.2703         0.041191   
    175. D(C  14,C  15,C   6,C   5)     -3.1568         0.041191   
    176. D(C  10,C  15,C  14,C   3)    179.4270         0.041191   
    177. D(C  10,C  15,C   6,C   7)     -3.1567         0.041191   
    178. D(C  10,C  15,C   6,C   5)    177.4162         0.041191   
    179. D(H  31,C  16,C   0,C  13)      0.0001         0.041191   
    180. D(H  31,C  16,C   0,C   1)   -180.0000         0.041191   
    181. D(C  18,C  16,C   0,C  13)    180.0000         0.041191   
    182. D(C  18,C  16,C   0,C   1)     -0.0000         0.041191   
    183. D(H  32,C  17,C   7,C   8)   -180.0000         0.041191   
    184. D(H  32,C  17,C   7,C   6)     -0.0000         0.041191   
    185. D(C  19,C  17,C   7,C   8)      0.0001         0.041191   
    186. D(C  19,C  17,C   7,C   6)   -180.0000         0.041191   
    187. D(H  33,C  18,C  16,H  31)    179.9999         0.041191   
    188. D(H  33,C  18,C  16,C   0)      0.0000         0.041191   
    189. D(C  20,C  18,C  16,H  31)     -0.0001         0.041191   
    190. D(C  20,C  18,C  16,C   0)   -180.0000         0.041191   
    191. D(H  34,C  19,C  17,H  32)    180.0000         0.041191   
    192. D(H  34,C  19,C  17,C   7)     -0.0000         0.041191   
    193. D(O  21,C  19,C  17,H  32)      0.0000         0.041191   
    194. D(O  21,C  19,C  17,C   7)    180.0000         0.041191   
    195. D(H  35,O  21,C  19,H  34)      0.0001         0.029829   
    196. D(H  35,O  21,C  19,C  17)   -180.0000         0.029829   
    -----------------------------------------------------------------

Number of atoms                         .... 36
Number of degrees of freedom            .... 196

         *************************************************************
         *                GEOMETRY OPTIMIZATION CYCLE   1            *
         *************************************************************
---------------------------------
CARTESIAN COORDINATES (ANGSTROEM)
---------------------------------
  C     -7.181673    2.676380   -0.233569
  C     -6.025116    3.346171   -0.197181
  C     -4.867706    2.679037   -0.097971
  C     -4.868227    1.342037   -0.097971
  C     -3.710654    0.673112   -0.086392
  C     -3.713097   -0.663450    0.022061
  C     -4.872863   -1.325629    0.085555
  C     -4.876956   -2.652183    0.252304
  C     -6.036708   -3.314386    0.315802
  C     -7.192936   -2.653800    0.170979
  C     -7.187210   -1.327112    0.005338
  C     -8.340689   -0.666270   -0.137287
  C     -8.339160    0.670762   -0.214577
  C     -7.182588    1.340528   -0.178187
  C     -6.026362    0.673987   -0.097971
  C     -6.028673   -0.659858   -0.006207
  C     -8.337316    3.342441   -0.325340
  C     -3.721298   -3.316534    0.355556
  C     -8.336401    4.678293   -0.380722
  C     -3.725392   -4.643089    0.522305
  C     -9.471299    5.332398   -0.470845
  O     -2.554175   -5.316384    0.626947
  N    -10.472222    5.909286   -0.550329
  H     -6.023974    4.444963   -0.248706
  H     -3.919078    3.229944   -0.016693
  H     -2.758363    1.217960   -0.165658
  H     -2.761802   -1.214533    0.058753
  H     -6.041367   -4.400994    0.486864
  H     -8.146261   -3.202317    0.188313
  H     -9.289647   -1.219972   -0.191074
  H     -9.289011    1.217629   -0.307954
  H     -9.288859    2.791379   -0.355277
  H     -2.767127   -2.771715    0.303314
  H     -7.384858    5.229356   -0.350784
  H     -4.679563   -5.187908    0.574547
  H     -2.759147   -6.259528    0.742055

----------------------------
CARTESIAN COORDINATES (A.U.)
----------------------------
  NO LB      ZA    FRAG     MASS         X           Y           Z
   0 C     6.0000    0    12.011  -13.571395    5.057625   -0.441381
   1 C     6.0000    0    12.011  -11.385819    6.323347   -0.372618
   2 C     6.0000    0    12.011   -9.198631    5.062646   -0.185138
   3 C     6.0000    0    12.011   -9.199616    2.536082   -0.185138
   4 C     6.0000    0    12.011   -7.012120    1.271997   -0.163257
   5 C     6.0000    0    12.011   -7.016736   -1.253739    0.041689
   6 C     6.0000    0    12.011   -9.208377   -2.505076    0.161676
   7 C     6.0000    0    12.011   -9.216111   -5.011900    0.476785
   8 C     6.0000    0    12.011  -11.407725   -6.263282    0.596779
   9 C     6.0000    0    12.011  -13.592679   -5.014955    0.323103
  10 C     6.0000    0    12.011  -13.581859   -2.507878    0.010087
  11 C     6.0000    0    12.011  -15.761618   -1.259068   -0.259435
  12 C     6.0000    0    12.011  -15.758729    1.267556   -0.405492
  13 C     6.0000    0    12.011  -13.573124    2.533231   -0.336725
  14 C     6.0000    0    12.011  -11.388174    1.273651   -0.185138
  15 C     6.0000    0    12.011  -11.392541   -1.246951   -0.011730
  16 C     6.0000    0    12.011  -15.755244    6.316298   -0.614804
  17 C     6.0000    0    12.011   -7.032234   -6.267341    0.671903
  18 C     6.0000    0    12.011  -15.753515    8.840693   -0.719460
  19 C     6.0000    0    12.011   -7.039971   -8.774167    0.987013
  20 C     6.0000    0    12.011  -17.898161   10.076772   -0.889768
  21 O     8.0000    0    15.999   -4.826691  -10.046510    1.184758
  22 N     7.0000    0    14.007  -19.789632   11.166932   -1.039971
  23 H     1.0000    0     1.008  -11.383661    8.399763   -0.469986
  24 H     1.0000    0     1.008   -7.405984    6.103710   -0.031545
  25 H     1.0000    0     1.008   -5.212551    2.301611   -0.313048
  26 H     1.0000    0     1.008   -5.219049   -2.295135    0.111027
  27 H     1.0000    0     1.008  -11.416529   -8.316673    0.920040
  28 H     1.0000    0     1.008  -15.394202   -6.051502    0.355860
  29 H     1.0000    0     1.008  -17.554889   -2.305413   -0.361078
  30 H     1.0000    0     1.008  -17.553687    2.300985   -0.581949
  31 H     1.0000    0     1.008  -17.553400    5.274942   -0.671376
  32 H     1.0000    0     1.008   -5.229112   -5.237782    0.573180
  33 H     1.0000    0     1.008  -13.955359    9.882051   -0.662886
  34 H     1.0000    0     1.008   -8.843092   -9.803725    1.085736
  35 H     1.0000    0     1.008   -5.214032  -11.828794    1.402281

--------------------------------
INTERNAL COORDINATES (ANGSTROEM)
--------------------------------
 C      0   0   0     0.000000000000     0.00000000     0.00000000
 C      1   0   0     1.336999687537     0.00000000     0.00000000
 C      2   1   0     1.339592589617   119.99493594     0.00000000
 C      3   2   1     1.337000101511   119.84635675     3.09284059
 C      4   3   2     1.337000366191   119.99869785   175.67480508
 C      5   4   3     1.340957121351   119.85462095   174.64855331
 C      6   5   4     1.337000258352   119.93849306     1.62219576
 C      7   6   5     1.336999437758   119.99875598   182.91572473
 C      8   7   6     1.337000190994   119.99995853   179.99996352
 C      9   8   7     1.339481523840   119.95775466     2.05927203
 C     10   9   8     1.337000664660   119.93779910   357.88966819
 C     11  10   9     1.336999567326   119.99874990   180.10208906
 C     12  11  10     1.339264966676   119.90871973   175.60066991
 C      1   2   3     1.336999838838   120.00001751   359.64047783
 C      4   3   2     1.336999431834   120.00007588   355.10183352
 C      7   6   5     1.336999642926   119.99995540     2.34279360
 C      1   2   3     1.337000342412   120.00000670   179.64052445
 C      8   7   6     1.336999865246   120.00001858     0.00000000
 C     17   1   2     1.336999838838   119.99997579     0.00000000
 C     18   8   7     1.337000433007   119.99997577   180.00000533
 C     19  17   1     1.312999991073   119.99999414   180.00003192
 O     20  18   8     1.355000135158   119.99996171   179.99999658
 N     21  19  17     1.158000139348   179.99998867     0.00000000
 H      2   1   3     1.099999995024   120.00256706   179.99994282
 H      3   2   1     1.099999871962   120.07682749   183.09289311
 H      5   4   3     1.100000268428   120.07270889   354.64845968
 H      6   5   4     1.100000433081   120.03073902   181.62219325
 H      9   8   7     1.100000390813   120.02114928   182.05917638
 H     10   9   8     1.099999964759   120.03113211   177.88978682
 H     12  11  10     1.100000105426   120.04567600   355.60067056
 H     13  12  11     1.099999864554   120.01562164   181.44908571
 H     17   1   2     1.099999833028   120.00001674   180.00004737
 H     18   8   7     1.099999666621   120.00002285     0.00000000
 H     19  17   1     1.100000361210   120.00004919     0.00000000
 H     20  18   8     1.099999666621   120.00000138     0.00000000
 H     22  20  18     0.971999988263   107.99993695   180.00001049

---------------------------
INTERNAL COORDINATES (A.U.)
---------------------------
 C      0   0   0     0.000000000000     0.00000000     0.00000000
 C      1   0   0     2.526563250583     0.00000000     0.00000000
 C      2   1   0     2.531463125406   119.99493594     0.00000000
 C      3   2   1     2.526564032881   119.84635675     3.09284059
 C      4   3   2     2.526564533054   119.99869785   175.67480508
 C      5   4   3     2.534041716685   119.85462095   174.64855331
 C      6   5   4     2.526564329267   119.93849306     1.62219576
 C      7   6   5     2.526562778570   119.99875598   182.91572473
 C      8   7   6     2.526564201978   119.99995853   179.99996352
 C      9   8   7     2.531253241505   119.95775466     2.05927203
 C     10   9   8     2.526565097078   119.93779910   357.88966819
 C     11  10   9     2.526563023417   119.99874990   180.10208906
 C     12  11  10     2.530844007772   119.90871973   175.60066991
 C      1   2   3     2.526563536501   120.00001751   359.64047783
 C      4   3   2     2.526562767375   120.00007588   355.10183352
 C      7   6   5     2.526563166281   119.99995540     2.34279360
 C      1   2   3     2.526564488118   120.00000670   179.64052445
 C      8   7   6     2.526563586405   120.00001858     0.00000000
 C     17   1   2     2.526563536501   119.99997579     0.00000000
 C     18   8   7     2.526564659318   119.99997577   180.00000533
 C     19  17   1     2.481210396969   119.99999414   180.00003192
 O     20  18   8     2.560579166875   119.99996171   179.99999658
 N     21  19  17     2.188303126410   179.99998867     0.00000000
 H      2   1   3     2.078698737910   120.00256706   179.99994282
 H      3   2   1     2.078698505357   120.07682749   183.09289311
 H      5   4   3     2.078699254568   120.07270889   354.64845968
 H      6   5   4     2.078699565718   120.03073902   181.62219325
 H      9   8   7     2.078699485843   120.02114928   182.05917638
 H     10   9   8     2.078698680718   120.03113211   177.88978682
 H     12  11  10     2.078698946539   120.04567600   355.60067056
 H     13  12  11     2.078698491358   120.01562164   181.44908571
 H     17   1   2     2.078698431782   120.00001674   180.00004737
 H     18   8   7     2.078698117318   120.00002285     0.00000000
 H     19  17   1     2.078699429901   120.00004919     0.00000000
 H     20  18   8     2.078698117318   120.00000138     0.00000000
 H     22  20  18     1.836813779992   107.99993695   180.00001049

---------------------
BASIS SET INFORMATION
---------------------
There are 4 groups of distinct atoms

 Group   1 Type C   : 7s4p1d contracted to 3s2p1d pattern {511/31/1}
 Group   2 Type O   : 7s4p1d contracted to 3s2p1d pattern {511/31/1}
 Group   3 Type N   : 7s4p1d contracted to 3s2p1d pattern {511/31/1}
 Group   4 Type H   : 4s1p contracted to 2s1p pattern {31/1}

Atom   0C    basis set group =>   1
Atom   1C    basis set group =>   1
Atom   2C    basis set group =>   1
Atom   3C    basis set group =>   1
Atom   4C    basis set group =>   1
Atom   5C    basis set group =>   1
Atom   6C    basis set group =>   1
Atom   7C    basis set group =>   1
Atom   8C    basis set group =>   1
Atom   9C    basis set group =>   1
Atom  10C    basis set group =>   1
Atom  11C    basis set group =>   1
Atom  12C    basis set group =>   1
Atom  13C    basis set group =>   1
Atom  14C    basis set group =>   1
Atom  15C    basis set group =>   1
Atom  16C    basis set group =>   1
Atom  17C    basis set group =>   1
Atom  18C    basis set group =>   1
Atom  19C    basis set group =>   1
Atom  20C    basis set group =>   1
Atom  21O    basis set group =>   2
Atom  22N    basis set group =>   3
Atom  23H    basis set group =>   4
Atom  24H    basis set group =>   4
Atom  25H    basis set group =>   4
Atom  26H    basis set group =>   4
Atom  27H    basis set group =>   4
Atom  28H    basis set group =>   4
Atom  29H    basis set group =>   4
Atom  30H    basis set group =>   4
Atom  31H    basis set group =>   4
Atom  32H    basis set group =>   4
Atom  33H    basis set group =>   4
Atom  34H    basis set group =>   4
Atom  35H    basis set group =>   4
---------------------------------
AUXILIARY/J BASIS SET INFORMATION
---------------------------------
There are 4 groups of distinct atoms

 Group   1 Type C   : 12s5p4d2f1g contracted to 6s4p3d1f1g pattern {711111/2111/211/2/1}
 Group   2 Type O   : 12s5p4d2f1g contracted to 6s4p3d1f1g pattern {711111/2111/211/2/1}
 Group   3 Type N   : 12s5p4d2f1g contracted to 6s4p3d1f1g pattern {711111/2111/211/2/1}
 Group   4 Type H   : 5s2p1d contracted to 3s1p1d pattern {311/2/1}

Atom   0C    basis set group =>   1
Atom   1C    basis set group =>   1
Atom   2C    basis set group =>   1
Atom   3C    basis set group =>   1
Atom   4C    basis set group =>   1
Atom   5C    basis set group =>   1
Atom   6C    basis set group =>   1
Atom   7C    basis set group =>   1
Atom   8C    basis set group =>   1
Atom   9C    basis set group =>   1
Atom  10C    basis set group =>   1
Atom  11C    basis set group =>   1
Atom  12C    basis set group =>   1
Atom  13C    basis set group =>   1
Atom  14C    basis set group =>   1
Atom  15C    basis set group =>   1
Atom  16C    basis set group =>   1
Atom  17C    basis set group =>   1
Atom  18C    basis set group =>   1
Atom  19C    basis set group =>   1
Atom  20C    basis set group =>   1
Atom  21O    basis set group =>   2
Atom  22N    basis set group =>   3
Atom  23H    basis set group =>   4
Atom  24H    basis set group =>   4
Atom  25H    basis set group =>   4
Atom  26H    basis set group =>   4
Atom  27H    basis set group =>   4
Atom  28H    basis set group =>   4
Atom  29H    basis set group =>   4
Atom  30H    basis set group =>   4
Atom  31H    basis set group =>   4
Atom  32H    basis set group =>   4
Atom  33H    basis set group =>   4
Atom  34H    basis set group =>   4
Atom  35H    basis set group =>   4


           ************************************************************
           *        Program running with 8 parallel MPI-processes     *
           *              working on a common directory               *
           ************************************************************
------------------------------------------------------------------------------
                           ORCA GTO INTEGRAL CALCULATION
                           -- RI-GTO INTEGRALS CHOSEN --
------------------------------------------------------------------------------
------------------------------------------------------------------------------
                   ___                                                        
                  /   \      - P O W E R E D   B Y -                         
                 /     \                                                     
                 |  |  |   _    _      __       _____    __    __             
                 |  |  |  | |  | |    /  \     |  _  \  |  |  /  |          
                  \  \/   | |  | |   /    \    | | | |  |  | /  /          
                 / \  \   | |__| |  /  /\  \   | |_| |  |  |/  /          
                |  |  |   |  __  | /  /__\  \  |    /   |      \           
                |  |  |   | |  | | |   __   |  |    \   |  |\   \          
                \     /   | |  | | |  |  |  |  | |\  \  |  | \   \       
                 \___/    |_|  |_| |__|  |__|  |_| \__\ |__|  \__/        
                                                                              
                      - O R C A' S   B I G   F R I E N D -                    
                                      &                                       
                       - I N T E G R A L  F E E D E R -                       
                                                                              
 v1 FN, 2020, v2 2021                                                         
------------------------------------------------------------------------------


Reading SHARK input file NC_OH.SHARKINP.tmp ... ok
----------------------
SHARK INTEGRAL PACKAGE
----------------------

Number of atoms                             ...     36
Number of basis functions                   ...    387
Number of shells                            ...    177
Maximum angular momentum                    ...      2
Integral batch strategy                     ... SHARK/LIBINT Hybrid
RI-J (if used) integral strategy            ... SPLIT-RIJ (Revised 2003 algorithm where possible)
Printlevel                                  ...      1
Contraction scheme used                     ... SEGMENTED contraction
Coulomb Range Separation                    ... NOT USED
Exchange Range Separation                   ... NOT USED
Finite Nucleus Model                        ... NOT USED
Auxiliary Coulomb fitting basis             ... AVAILABLE
   # of basis functions in Aux-J            ...   1270
   # of shells in Aux-J                     ...    410
   Maximum angular momentum in Aux-J        ...      4
Auxiliary J/K fitting basis                 ... NOT available
Auxiliary Correlation fitting basis         ... NOT available
Auxiliary 'external' fitting basis          ... NOT available
Integral threshold                          ...     2.500000e-11
Primitive cut-off                           ...     2.500000e-12
Primitive pair pre-selection threshold      ...     2.500000e-12

Calculating pre-screening integrals         ... done (  0.0 sec) Dimension = 177
Organizing shell pair data                  ... done (  1.6 sec)
Shell pair information
Total number of shell pairs                 ...     15753
Shell pairs after pre-screening             ...     11650
Total number of primitive shell pairs       ...     58649
Primitive shell pairs kept                  ...     27786
          la=0 lb=0:   3366 shell pairs
          la=1 lb=0:   4271 shell pairs
          la=1 lb=1:   1377 shell pairs
          la=2 lb=0:   1493 shell pairs
          la=2 lb=1:    960 shell pairs
          la=2 lb=2:    183 shell pairs

Calculating one electron integrals          ... done (  0.0 sec)
Calculating RI/J V-Matrix + Cholesky decomp.... done (  4.2 sec)
Calculating Nuclear repulsion               ... done (  0.0 sec) ENN=   1721.693452090731 Eh

SHARK setup successfully completed in   7.3 seconds

Maximum memory used throughout the entire GTOINT-calculation: 21.2 MB


           ************************************************************
           *        Program running with 8 parallel MPI-processes     *
           *              working on a common directory               *
           ************************************************************
-------------------------------------------------------------------------------
                                 ORCA SCF
-------------------------------------------------------------------------------

------------
SCF SETTINGS
------------
Hamiltonian:
 Density Functional     Method          .... DFT(GTOs)
 Exchange Functional    Exchange        .... B88
   X-Alpha parameter    XAlpha          ....  0.666667
   Becke's b parameter  XBeta           ....  0.004200
 Correlation Functional Correlation     .... LYP
 LDA part of GGA corr.  LDAOpt          .... VWN-5
 Gradients option       PostSCFGGA      .... off
 Hybrid DFT is turned on
   Fraction HF Exchange ScalHFX         ....  0.200000
   Scaling of DF-GGA-X  ScalDFX         ....  0.720000
   Scaling of DF-GGA-C  ScalDFC         ....  0.810000
   Scaling of DF-LDA-C  ScalLDAC        ....  1.000000
   Perturbative correction              ....  0.000000
   Density functional embedding theory  .... OFF
   NL short-range parameter             ....  4.800000
 RI-approximation to the Coulomb term is turned on
   Number of AuxJ basis functions       .... 1270
   RIJ-COSX (HFX calculated with COS-X)).... on


General Settings:
 Integral files         IntName         .... NC_OH
 Hartree-Fock type      HFTyp           .... RHF
 Total Charge           Charge          ....    0
 Multiplicity           Mult            ....    1
 Number of Electrons    NEL             ....  154
 Basis Dimension        Dim             ....  387
 Nuclear Repulsion      ENuc            ....   1721.6934520907 Eh

Convergence Acceleration:
 DIIS                   CNVDIIS         .... on
   Start iteration      DIISMaxIt       ....    12
   Startup error        DIISStart       ....  0.200000
   # of expansion vecs  DIISMaxEq       ....     5
   Bias factor          DIISBfac        ....   1.050
   Max. coefficient     DIISMaxC        ....  10.000
 Trust-Rad. Augm. Hess. CNVTRAH         .... auto
   Auto Start mean grad. ratio tolernc. ....  1.125000
   Auto Start start iteration           ....    20
   Auto Start num. interpolation iter.  ....    10
   Max. Number of Micro iterations      ....    16
   Max. Number of Macro iterations      .... Maxiter - #DIIS iter
   Number of Davidson start vectors     ....     2
   Converg. threshold I  (grad. norm)   ....   1.000e-05
   Converg. threshold II (energy diff.) ....   1.000e-08
   Grad. Scal. Fac. for Micro threshold ....   0.100
   Minimum threshold for Micro iter.    ....   0.010
   NR start threshold (gradient norm)   ....   0.001
   Initial trust radius                 ....   0.400
   Minimum AH scaling param. (alpha)    ....   1.000
   Maximum AH scaling param. (alpha)    .... 1000.000
   Orbital update algorithm             .... Taylor
   White noise on init. David. guess    .... on
   Maximum white noise                  ....   0.010
   Quad. conv. algorithm                .... NR
 SOSCF                  CNVSOSCF        .... on
   Start iteration      SOSCFMaxIt      ....   150
   Startup grad/error   SOSCFStart      ....  0.003300
 Level Shifting         CNVShift        .... on
   Level shift para.    LevelShift      ....    0.2500
   Turn off err/grad.   ShiftErr        ....    0.0010
 Zerner damping         CNVZerner       .... off
 Static damping         CNVDamp         .... on
   Fraction old density DampFac         ....    0.7000
   Max. Damping (<1)    DampMax         ....    0.9800
   Min. Damping (>=0)   DampMin         ....    0.0000
   Turn off err/grad.   DampErr         ....    0.1000
 Fernandez-Rico         CNVRico         .... off

SCF Procedure:
 Maximum # iterations   MaxIter         ....   125
 SCF integral mode      SCFMode         .... Direct
   Integral package                     .... SHARK and LIBINT hybrid scheme
 Reset frequency        DirectResetFreq ....    20
 Integral Threshold     Thresh          ....  2.500e-11 Eh
 Primitive CutOff       TCut            ....  2.500e-12 Eh

Convergence Tolerance:
 Convergence Check Mode ConvCheckMode   .... Total+1el-Energy
 Convergence forced     ConvForced      .... 0
 Energy Change          TolE            ....  1.000e-08 Eh
 1-El. energy change                    ....  1.000e-05 Eh
 Orbital Gradient       TolG            ....  1.000e-05
 Orbital Rotation angle TolX            ....  1.000e-05
 DIIS Error             TolErr          ....  5.000e-07


Diagonalization of the overlap matrix:
Smallest eigenvalue                        ... 1.045e-04
Time for diagonalization                   ...    0.029 sec
Threshold for overlap eigenvalues          ... 1.000e-08
Number of eigenvalues below threshold      ... 0
Time for construction of square roots      ...    0.026 sec
Total time needed                          ...    0.056 sec

Time for model grid setup =    0.302 sec

------------------------------
INITIAL GUESS: MODEL POTENTIAL
------------------------------
Loading Hartree-Fock densities                     ... done
Calculating cut-offs                               ... done
Initializing the effective Hamiltonian             ... done
Setting up the integral package (SHARK)            ... done
Starting the Coulomb interaction                   ... done (   0.2 sec)
Reading the grid                                   ... done
Mapping shells                                     ... done
Starting the XC term evaluation                    ... done (   0.1 sec)
  promolecular density results
     # of electrons  =    154.005065752
     EX              =   -127.231132768
     EC              =     -5.296060199
     EX+EC           =   -132.527192968
Transforming the Hamiltonian                       ... done (   0.0 sec)
Diagonalizing the Hamiltonian                      ... done (   0.0 sec)
Back transforming the eigenvectors                 ... done (   0.0 sec)
Now organizing SCF variables                       ... done
                      ------------------
                      INITIAL GUESS DONE (   0.7 sec)
                      ------------------
-------------------
DFT GRID GENERATION
-------------------

General Integration Accuracy     IntAcc      ... 4.388
Radial Grid Type                 RadialGrid  ... OptM3 with GC (2021)
Angular Grid (max. ang.)         AngularGrid ... 4 (Lebedev-302)
Angular grid pruning method      GridPruning ... 4 (adaptive)
Weight generation scheme         WeightScheme... Becke
Basis function cutoff            BFCut       ... 1.0000e-11
Integration weight cutoff        WCut        ... 1.0000e-14
Angular grids for H and He will be reduced by one unit
Partially contracted basis set               ... off
Rotationally invariant grid construction     ... off

Total number of grid points                  ...   177770
Total number of batches                      ...     2793
Average number of points per batch           ...       63
Average number of grid points per atom       ...     4938
Time for grid setup =    2.329 sec

--------------------
COSX GRID GENERATION
--------------------

GRIDX 1
-------
General Integration Accuracy     IntAcc      ... 3.816
Radial Grid Type                 RadialGrid  ... OptM3 with GC (2021)
Angular Grid (max. ang.)         AngularGrid ... 1 (Lebedev-50)
Angular grid pruning method      GridPruning ... 4 (adaptive)
Weight generation scheme         WeightScheme... Becke
Basis function cutoff            BFCut       ... 1.0000e-11
Integration weight cutoff        WCut        ... 1.0000e-14
Angular grids for H and He will be reduced by one unit
Partially contracted basis set               ... on
Rotationally invariant grid construction     ... off

Total number of grid points                  ...    22626
Total number of batches                      ...      371
Average number of points per batch           ...       60
Average number of grid points per atom       ...      628
UseSFitting                                  ... on

GRIDX 2
-------
General Integration Accuracy     IntAcc      ... 4.020
Radial Grid Type                 RadialGrid  ... OptM3 with GC (2021)
Angular Grid (max. ang.)         AngularGrid ... 2 (Lebedev-110)
Angular grid pruning method      GridPruning ... 4 (adaptive)
Weight generation scheme         WeightScheme... Becke
Basis function cutoff            BFCut       ... 1.0000e-11
Integration weight cutoff        WCut        ... 1.0000e-14
Angular grids for H and He will be reduced by one unit
Partially contracted basis set               ... on
Rotationally invariant grid construction     ... off

Total number of grid points                  ...    49648
Total number of batches                      ...      796
Average number of points per batch           ...       62
Average number of grid points per atom       ...     1379
UseSFitting                                  ... on

GRIDX 3
-------
General Integration Accuracy     IntAcc      ... 4.338
Radial Grid Type                 RadialGrid  ... OptM3 with GC (2021)
Angular Grid (max. ang.)         AngularGrid ... 3 (Lebedev-194)
Angular grid pruning method      GridPruning ... 4 (adaptive)
Weight generation scheme         WeightScheme... Becke
Basis function cutoff            BFCut       ... 1.0000e-11
Integration weight cutoff        WCut        ... 1.0000e-14
Angular grids for H and He will be reduced by one unit
Partially contracted basis set               ... on
Rotationally invariant grid construction     ... off

Total number of grid points                  ...   108953
Total number of batches                      ...     1721
Average number of points per batch           ...       63
Average number of grid points per atom       ...     3026
UseSFitting                                  ... on

Time for X-Grid setup             =    2.167 sec

--------------
SCF ITERATIONS
--------------
ITER       Energy         Delta-E        Max-DP      RMS-DP      [F,P]     Damp
               ***  Starting incremental Fock matrix formation  ***
  0   -936.0251276236   0.000000000000 0.24627506  0.00421329  0.2035609 0.7000
  1   -936.2783735651  -0.253245941499 0.14935876  0.00280351  0.1004403 0.7000
                               ***Turning on DIIS***
  2   -936.3873327548  -0.108959189626 0.27150588  0.00556815  0.0418207 0.0000
  3   -936.5512533372  -0.163920582440 0.05467469  0.00123323  0.0503764 0.0000
  4   -936.5885972317  -0.037343894494 0.01993898  0.00033862  0.0231873 0.0000
  5   -936.5912276041  -0.002630372446 0.00796462  0.00014976  0.0095763 0.0000
  6   -936.5914469112  -0.000219307075 0.00250452  0.00004853  0.0033057 0.0000
                      *** Initiating the SOSCF procedure ***
                           *** Shutting down DIIS ***
                      *** Re-Reading the Fockian *** 
                      *** Removing any level shift *** 
ITER      Energy       Delta-E        Grad      Rot      Max-DP    RMS-DP
  7   -936.59148016  -0.0000332536  0.000391  0.000391  0.002244  0.000032
               *** Restarting incremental Fock matrix formation ***
  8   -936.59135403   0.0001261365  0.000168  0.001114  0.001785  0.000041
  9   -936.59135319   0.0000008406  0.000216  0.000599  0.000443  0.000010
 10   -936.59135522  -0.0000020364  0.000040  0.000348  0.000222  0.000007
 11   -936.59135510   0.0000001231  0.000068  0.000224  0.000105  0.000003
 12   -936.59135530  -0.0000001982  0.000009  0.000032  0.000057  0.000002
 13   -936.59135528   0.0000000181  0.000012  0.000021  0.000031  0.000001
 14   -936.59135531  -0.0000000245  0.000006  0.000013  0.000025  0.000000
 15   -936.59135531  -0.0000000059  0.000011  0.000010  0.000017  0.000000
                  ***Gradient check signals convergence***
              ***Rediagonalizing the Fockian in SOSCF/NRSCF***

               *****************************************************
               *                     SUCCESS                       *
               *           SCF CONVERGED AFTER  16 CYCLES          *
               *****************************************************

Old exchange energy                            =    -25.834026300 Eh
New exchange energy                            =    -25.833995004 Eh
Exchange energy change after final integration =      0.000031296 Eh
Total energy after final integration           =   -936.591324002 Eh
Final COS-X integration done in                =     9.233 sec

----------------
TOTAL SCF ENERGY
----------------

Total Energy       :         -936.59132400 Eh          -25485.94561 eV

Components:
Nuclear Repulsion  :         1721.69345209 Eh           46849.66062 eV
Electronic Energy  :        -2658.28477609 Eh          -72335.60623 eV
One Electron Energy:        -4686.94858389 Eh         -127538.35489 eV
Two Electron Energy:         2028.66380779 Eh           55202.74866 eV
Max COSX asymmetry :            0.00000466 Eh               0.00013 eV

Virial components:
Potential Energy   :        -1868.78907040 Eh          -50852.33589 eV
Kinetic Energy     :          932.19774640 Eh           25366.39028 eV
Virial Ratio       :            2.00471314


DFT components:
N(Alpha)           :       76.999986532336 electrons
N(Beta)            :       76.999986532336 electrons
N(Total)           :      153.999973064672 electrons
E(X)               :     -102.588124603211 Eh       
E(C)               :       -6.232018723898 Eh       
E(XC)              :     -108.820143327109 Eh       
DFET-embed. en.    :        0.000000000000 Eh       

---------------
SCF CONVERGENCE
---------------

  Last Energy change         ...    1.3239e-08  Tolerance :   1.0000e-08
  Last MAX-Density change    ...    3.5527e-15  Tolerance :   1.0000e-07
  Last RMS-Density change    ...    4.5625e-17  Tolerance :   5.0000e-09
  Last Orbital Gradient      ...    9.6680e-07  Tolerance :   1.0000e-05
  Last Orbital Rotation      ...    2.6865e-06  Tolerance :   1.0000e-05

             **** THE GBW FILE WAS UPDATED (NC_OH.gbw) ****
             **** DENSITY NC_OH.scfp WAS UPDATED ****
             **** ENERGY FILE WAS UPDATED (NC_OH.en.tmp) ****
             **** THE GBW FILE WAS UPDATED (NC_OH.gbw) ****
             **** DENSITY NC_OH.scfp WAS UPDATED ****
----------------
ORBITAL ENERGIES
----------------

  NO   OCC          E(Eh)            E(eV) 
   0   2.0000     -19.183201      -522.0014 
   1   2.0000     -14.298117      -389.0716 
   2   2.0000     -10.254060      -279.0272 
   3   2.0000     -10.198520      -277.5158 
   4   2.0000     -10.196732      -277.4672 
   5   2.0000     -10.195317      -277.4287 
   6   2.0000     -10.183738      -277.1136 
   7   2.0000     -10.182594      -277.0825 
   8   2.0000     -10.182557      -277.0815 
   9   2.0000     -10.182045      -277.0675 
  10   2.0000     -10.181025      -277.0398 
  11   2.0000     -10.180635      -277.0292 
  12   2.0000     -10.179997      -277.0118 
  13   2.0000     -10.178825      -276.9799 
  14   2.0000     -10.177251      -276.9371 
  15   2.0000     -10.176903      -276.9276 
  16   2.0000     -10.176466      -276.9157 
  17   2.0000     -10.173398      -276.8322 
  18   2.0000     -10.173252      -276.8283 
  19   2.0000     -10.173174      -276.8261 
  20   2.0000     -10.172312      -276.8027 
  21   2.0000     -10.171127      -276.7704 
  22   2.0000     -10.170885      -276.7638 
  23   2.0000      -1.064728       -28.9727 
  24   2.0000      -0.944503       -25.7012 
  25   2.0000      -0.904586       -24.6150 
  26   2.0000      -0.880177       -23.9508 
  27   2.0000      -0.869535       -23.6612 
  28   2.0000      -0.856055       -23.2945 
  29   2.0000      -0.813629       -22.1400 
  30   2.0000      -0.808745       -22.0071 
  31   2.0000      -0.772657       -21.0251 
  32   2.0000      -0.761359       -20.7176 
  33   2.0000      -0.746799       -20.3214 
  34   2.0000      -0.719674       -19.5833 
  35   2.0000      -0.678332       -18.4584 
  36   2.0000      -0.663483       -18.0543 
  37   2.0000      -0.655746       -17.8438 
  38   2.0000      -0.636037       -17.3074 
  39   2.0000      -0.610018       -16.5994 
  40   2.0000      -0.589048       -16.0288 
  41   2.0000      -0.583211       -15.8700 
  42   2.0000      -0.558617       -15.2008 
  43   2.0000      -0.543522       -14.7900 
  44   2.0000      -0.539918       -14.6919 
  45   2.0000      -0.518777       -14.1166 
  46   2.0000      -0.514346       -13.9961 
  47   2.0000      -0.502634       -13.6774 
  48   2.0000      -0.474186       -12.9033 
  49   2.0000      -0.467704       -12.7269 
  50   2.0000      -0.462610       -12.5882 
  51   2.0000      -0.457215       -12.4415 
  52   2.0000      -0.453084       -12.3291 
  53   2.0000      -0.448912       -12.2155 
  54   2.0000      -0.428674       -11.6648 
  55   2.0000      -0.423891       -11.5347 
  56   2.0000      -0.419062       -11.4033 
  57   2.0000      -0.406537       -11.0624 
  58   2.0000      -0.405714       -11.0400 
  59   2.0000      -0.402877       -10.9629 
  60   2.0000      -0.397369       -10.8130 
  61   2.0000      -0.390104       -10.6153 
  62   2.0000      -0.380899       -10.3648 
  63   2.0000      -0.375482       -10.2174 
  64   2.0000      -0.372446       -10.1348 
  65   2.0000      -0.352585        -9.5943 
  66   2.0000      -0.342343        -9.3156 
  67   2.0000      -0.337448        -9.1824 
  68   2.0000      -0.335307        -9.1242 
  69   2.0000      -0.327843        -8.9210 
  70   2.0000      -0.310505        -8.4493 
  71   2.0000      -0.306290        -8.3346 
  72   2.0000      -0.286966        -7.8087 
  73   2.0000      -0.272494        -7.4149 
  74   2.0000      -0.245211        -6.6725 
  75   2.0000      -0.234271        -6.3748 
  76   2.0000      -0.185271        -5.0415 
  77   0.0000      -0.083751        -2.2790 
  78   0.0000      -0.041936        -1.1411 
  79   0.0000      -0.032746        -0.8911 
  80   0.0000      -0.005205        -0.1416 
  81   0.0000       0.022406         0.6097 
  82   0.0000       0.022905         0.6233 
  83   0.0000       0.039906         1.0859 
  84   0.0000       0.044661         1.2153 
  85   0.0000       0.057033         1.5519 
  86   0.0000       0.066043         1.7971 
  87   0.0000       0.068705         1.8696 
  88   0.0000       0.085585         2.3289 
  89   0.0000       0.097169         2.6441 
  90   0.0000       0.099456         2.7063 
  91   0.0000       0.109020         2.9666 
  92   0.0000       0.127736         3.4759 
  93   0.0000       0.132675         3.6103 
  94   0.0000       0.136372         3.7109 
  95   0.0000       0.150789         4.1032 
  96   0.0000       0.174953         4.7607 
  97   0.0000       0.196846         5.3565 
  98   0.0000       0.201249         5.4763 
  99   0.0000       0.205776         5.5994 
 100   0.0000       0.214845         5.8462 
 101   0.0000       0.221840         6.0366 
 102   0.0000       0.231733         6.3058 
 103   0.0000       0.235667         6.4128 
 104   0.0000       0.254951         6.9376 
 105   0.0000       0.261055         7.1037 
 106   0.0000       0.275280         7.4907 
 107   0.0000       0.280553         7.6342 
 108   0.0000       0.288132         7.8405 
 109   0.0000       0.292420         7.9572 
 110   0.0000       0.296731         8.0745 
 111   0.0000       0.299702         8.1553 
 112   0.0000       0.312521         8.5041 
 113   0.0000       0.320439         8.7196 
 114   0.0000       0.323303         8.7975 
 115   0.0000       0.327876         8.9220 
 116   0.0000       0.343520         9.3477 
 117   0.0000       0.348489         9.4829 
 118   0.0000       0.354480         9.6459 
 119   0.0000       0.362099         9.8532 
 120   0.0000       0.370696        10.0872 
 121   0.0000       0.373068        10.1517 
 122   0.0000       0.376848        10.2546 
 123   0.0000       0.386859        10.5270 
 124   0.0000       0.398996        10.8572 
 125   0.0000       0.415568        11.3082 
 126   0.0000       0.420955        11.4548 
 127   0.0000       0.427019        11.6198 
 128   0.0000       0.435633        11.8542 
 129   0.0000       0.438697        11.9376 
 130   0.0000       0.441885        12.0243 
 131   0.0000       0.450997        12.2723 
 132   0.0000       0.455765        12.4020 
 133   0.0000       0.460831        12.5399 
 134   0.0000       0.463658        12.6168 
 135   0.0000       0.465860        12.6767 
 136   0.0000       0.475211        12.9311 
 137   0.0000       0.481018        13.0892 
 138   0.0000       0.488956        13.3052 
 139   0.0000       0.491212        13.3665 
 140   0.0000       0.498916        13.5762 
 141   0.0000       0.514970        14.0131 
 142   0.0000       0.516048        14.0424 
 143   0.0000       0.520196        14.1553 
 144   0.0000       0.528309        14.3760 
 145   0.0000       0.535899        14.5826 
 146   0.0000       0.540148        14.6982 
 147   0.0000       0.542773        14.7696 
 148   0.0000       0.556508        15.1433 
 149   0.0000       0.564174        15.3519 
 150   0.0000       0.572268        15.5722 
 151   0.0000       0.576287        15.6816 
 152   0.0000       0.586982        15.9726 
 153   0.0000       0.589270        16.0348 
 154   0.0000       0.595613        16.2075 
 155   0.0000       0.603489        16.4218 
 156   0.0000       0.609410        16.5829 
 157   0.0000       0.622969        16.9518 
 158   0.0000       0.626664        17.0524 
 159   0.0000       0.635592        17.2953 
 160   0.0000       0.638930        17.3862 
 161   0.0000       0.639520        17.4022 
 162   0.0000       0.649186        17.6652 
 163   0.0000       0.654536        17.8108 
 164   0.0000       0.660098        17.9622 
 165   0.0000       0.662843        18.0369 
 166   0.0000       0.675955        18.3937 
 167   0.0000       0.677639        18.4395 
 168   0.0000       0.688781        18.7427 
 169   0.0000       0.692638        18.8476 
 170   0.0000       0.697902        18.9909 
 171   0.0000       0.698432        19.0053 
 172   0.0000       0.714058        19.4305 
 173   0.0000       0.724286        19.7088 
 174   0.0000       0.735010        20.0006 
 175   0.0000       0.742330        20.1998 
 176   0.0000       0.745031        20.2733 
 177   0.0000       0.755145        20.5486 
 178   0.0000       0.769819        20.9478 
 179   0.0000       0.774371        21.0717 
 180   0.0000       0.791566        21.5396 
 181   0.0000       0.796225        21.6664 
 182   0.0000       0.818445        22.2710 
 183   0.0000       0.820175        22.3181 
 184   0.0000       0.826587        22.4926 
 185   0.0000       0.844888        22.9906 
 186   0.0000       0.853100        23.2140 
 187   0.0000       0.862110        23.4592 
 188   0.0000       0.873283        23.7632 
 189   0.0000       0.882799        24.0222 
 190   0.0000       0.888886        24.1878 
 191   0.0000       0.898562        24.4511 
 192   0.0000       0.901088        24.5199 
 193   0.0000       0.911848        24.8126 
 194   0.0000       0.918203        24.9856 
 195   0.0000       0.933844        25.4112 
 196   0.0000       0.936674        25.4882 
 197   0.0000       0.941677        25.6243 
 198   0.0000       0.948531        25.8109 
 199   0.0000       0.950209        25.8565 
 200   0.0000       0.964584        26.2477 
 201   0.0000       0.972678        26.4679 
 202   0.0000       0.978575        26.6284 
 203   0.0000       0.988343        26.8942 
 204   0.0000       1.033915        28.1343 
 205   0.0000       1.053742        28.6738 
 206   0.0000       1.065866        29.0037 
 207   0.0000       1.069723        29.1087 
 208   0.0000       1.096791        29.8452 
 209   0.0000       1.116467        30.3806 
 210   0.0000       1.134683        30.8763 
 211   0.0000       1.135185        30.8900 
 212   0.0000       1.155418        31.4405 
 213   0.0000       1.161738        31.6125 
 214   0.0000       1.163024        31.6475 
 215   0.0000       1.186428        32.2844 
 216   0.0000       1.197517        32.5861 
 217   0.0000       1.202023        32.7087 
 218   0.0000       1.208393        32.8820 
 219   0.0000       1.210919        32.9508 
 220   0.0000       1.224217        33.3126 
 221   0.0000       1.231383        33.5076 
 222   0.0000       1.236752        33.6537 
 223   0.0000       1.244240        33.8575 
 224   0.0000       1.247530        33.9470 
 225   0.0000       1.251405        34.0525 
 226   0.0000       1.262611        34.3574 
 227   0.0000       1.265759        34.4430 
 228   0.0000       1.273252        34.6469 
 229   0.0000       1.275406        34.7056 
 230   0.0000       1.288333        35.0573 
 231   0.0000       1.297680        35.3117 
 232   0.0000       1.322637        35.9908 
 233   0.0000       1.325095        36.0577 
 234   0.0000       1.341206        36.4961 
 235   0.0000       1.348726        36.7007 
 236   0.0000       1.353645        36.8346 
 237   0.0000       1.359842        37.0032 
 238   0.0000       1.364265        37.1235 
 239   0.0000       1.368361        37.2350 
 240   0.0000       1.374833        37.4111 
 241   0.0000       1.382371        37.6162 
 242   0.0000       1.383906        37.6580 
 243   0.0000       1.399123        38.0721 
 244   0.0000       1.418508        38.5996 
 245   0.0000       1.452810        39.5330 
 246   0.0000       1.477824        40.2136 
 247   0.0000       1.483289        40.3624 
 248   0.0000       1.493746        40.6469 
 249   0.0000       1.516340        41.2617 
 250   0.0000       1.541951        41.9586 
 251   0.0000       1.605088        43.6767 
 252   0.0000       1.610490        43.8237 
 253   0.0000       1.627181        44.2779 
 254   0.0000       1.653526        44.9947 
 255   0.0000       1.666675        45.3525 
 256   0.0000       1.671867        45.4938 
 257   0.0000       1.685835        45.8739 
 258   0.0000       1.688850        45.9560 
 259   0.0000       1.701868        46.3102 
 260   0.0000       1.704417        46.3796 
 261   0.0000       1.711669        46.5769 
 262   0.0000       1.713699        46.6321 
 263   0.0000       1.724656        46.9303 
 264   0.0000       1.733420        47.1688 
 265   0.0000       1.740156        47.3521 
 266   0.0000       1.747946        47.5640 
 267   0.0000       1.756334        47.7923 
 268   0.0000       1.761890        47.9435 
 269   0.0000       1.772324        48.2274 
 270   0.0000       1.781719        48.4830 
 271   0.0000       1.791623        48.7525 
 272   0.0000       1.797476        48.9118 
 273   0.0000       1.803457        49.0746 
 274   0.0000       1.809717        49.2449 
 275   0.0000       1.815213        49.3945 
 276   0.0000       1.820550        49.5397 
 277   0.0000       1.830236        49.8033 
 278   0.0000       1.840994        50.0960 
 279   0.0000       1.852129        50.3990 
 280   0.0000       1.854720        50.4695 
 281   0.0000       1.863453        50.7071 
 282   0.0000       1.883674        51.2574 
 283   0.0000       1.904057        51.8120 
 284   0.0000       1.911042        52.0021 
 285   0.0000       1.945310        52.9346 
 286   0.0000       1.954659        53.1890 
 287   0.0000       1.979407        53.8624 
 288   0.0000       1.983530        53.9746 
 289   0.0000       1.983949        53.9860 
 290   0.0000       1.998210        54.3741 
 291   0.0000       1.998745        54.3886 
 292   0.0000       2.016839        54.8810 
 293   0.0000       2.020756        54.9876 
 294   0.0000       2.045346        55.6567 
 295   0.0000       2.061922        56.1077 
 296   0.0000       2.063894        56.1614 
 297   0.0000       2.069535        56.3149 
 298   0.0000       2.093513        56.9674 
 299   0.0000       2.096649        57.0527 
 300   0.0000       2.124193        57.8022 
 301   0.0000       2.131040        57.9886 
 302   0.0000       2.146302        58.4038 
 303   0.0000       2.170715        59.0682 
 304   0.0000       2.185058        59.4584 
 305   0.0000       2.187809        59.5333 
 306   0.0000       2.189434        59.5775 
 307   0.0000       2.195766        59.7498 
 308   0.0000       2.201754        59.9128 
 309   0.0000       2.207168        60.0601 
 310   0.0000       2.227936        60.6252 
 311   0.0000       2.236722        60.8643 
 312   0.0000       2.240780        60.9747 
 313   0.0000       2.255920        61.3867 
 314   0.0000       2.259264        61.4777 
 315   0.0000       2.272081        61.8265 
 316   0.0000       2.280236        62.0484 
 317   0.0000       2.296095        62.4799 
 318   0.0000       2.300621        62.6031 
 319   0.0000       2.301894        62.6377 
 320   0.0000       2.305444        62.7343 
 321   0.0000       2.312204        62.9183 
 322   0.0000       2.316350        63.0311 
 323   0.0000       2.343652        63.7740 
 324   0.0000       2.348894        63.9167 
 325   0.0000       2.362880        64.2972 
 326   0.0000       2.369621        64.4807 
 327   0.0000       2.370350        64.5005 
 328   0.0000       2.406753        65.4911 
 329   0.0000       2.430534        66.1382 
 330   0.0000       2.440767        66.4167 
 331   0.0000       2.444600        66.5209 
 332   0.0000       2.468319        67.1664 
 333   0.0000       2.504383        68.1477 
 334   0.0000       2.516086        68.4662 
 335   0.0000       2.522885        68.6512 
 336   0.0000       2.530178        68.8496 
 337   0.0000       2.562347        69.7250 
 338   0.0000       2.565896        69.8216 
 339   0.0000       2.589665        70.4684 
 340   0.0000       2.607578        70.9558 
 341   0.0000       2.614841        71.1534 
 342   0.0000       2.633094        71.6501 
 343   0.0000       2.666559        72.5608 
 344   0.0000       2.677369        72.8549 
 345   0.0000       2.698472        73.4291 
 346   0.0000       2.712179        73.8021 
 347   0.0000       2.717007        73.9335 
 348   0.0000       2.734074        74.3979 
 349   0.0000       2.749375        74.8143 
 350   0.0000       2.754927        74.9654 
 351   0.0000       2.768575        75.3368 
 352   0.0000       2.781167        75.6794 
 353   0.0000       2.808346        76.4190 
 354   0.0000       2.817696        76.6734 
 355   0.0000       2.834901        77.1416 
 356   0.0000       2.836631        77.1887 
 357   0.0000       2.872016        78.1515 
 358   0.0000       2.883317        78.4590 
 359   0.0000       2.893763        78.7433 
 360   0.0000       2.895136        78.7807 
 361   0.0000       2.917297        79.3837 
 362   0.0000       2.920353        79.4668 
 363   0.0000       2.933076        79.8131 
 364   0.0000       2.939581        79.9901 
 365   0.0000       2.964853        80.6778 
 366   0.0000       3.055902        83.1553 
 367   0.0000       3.072290        83.6012 
 368   0.0000       3.092681        84.1561 
 369   0.0000       3.098600        84.3172 
 370   0.0000       3.112144        84.6857 
 371   0.0000       3.173146        86.3457 
 372   0.0000       3.180117        86.5354 
 373   0.0000       3.199418        87.0606 
 374   0.0000       3.223796        87.7239 
 375   0.0000       3.272068        89.0375 
 376   0.0000       3.352472        91.2254 
 377   0.0000       3.378165        91.9245 
 378   0.0000       3.448604        93.8413 
 379   0.0000       3.473882        94.5291 
 380   0.0000       3.542468        96.3955 
 381   0.0000       3.640778        99.0706 
 382   0.0000       3.685780       100.2952 
 383   0.0000       3.756254       102.2129 
 384   0.0000       3.802196       103.4630 
 385   0.0000       3.949509       107.4716 
 386   0.0000       3.969124       108.0054 

                    ********************************
                    * MULLIKEN POPULATION ANALYSIS *
                    ********************************

-----------------------
MULLIKEN ATOMIC CHARGES
-----------------------
   0 C :    0.145562
   1 C :   -0.057802
   2 C :   -0.095104
   3 C :    0.168925
   4 C :   -0.086393
   5 C :   -0.114001
   6 C :    0.141997
   7 C :    0.181814
   8 C :   -0.089791
   9 C :   -0.082115
  10 C :    0.158502
  11 C :   -0.081639
  12 C :   -0.129787
  13 C :    0.171756
  14 C :    0.147488
  15 C :    0.158329
  16 C :   -0.050255
  17 C :   -0.069532
  18 C :   -0.238955
  19 C :    0.089248
  20 C :    0.002042
  21 O :   -0.181230
  22 N :    0.054327
  23 H :   -0.040758
  24 H :   -0.041952
  25 H :   -0.042717
  26 H :   -0.041323
  27 H :   -0.056958
  28 H :   -0.044139
  29 H :   -0.042214
  30 H :   -0.044187
  31 H :    0.007355
  32 H :   -0.020644
  33 H :    0.034977
  34 H :    0.002388
  35 H :    0.186786
Sum of atomic charges:   -0.0000000

--------------------------------
MULLIKEN REDUCED ORBITAL CHARGES
--------------------------------
  0 C s       :     3.086875  s :     3.086875
      pz      :     1.014823  p :     2.713593
      px      :     0.782985
      py      :     0.915785
      dz2     :     0.003499  d :     0.053970
      dxz     :     0.007894
      dyz     :     0.008325
      dx2y2   :     0.016970
      dxy     :     0.017281
  1 C s       :     3.253708  s :     3.253708
      pz      :     0.968471  p :     2.762529
      px      :     0.999975
      py      :     0.794083
      dz2     :     0.002796  d :     0.041565
      dxz     :     0.008305
      dyz     :     0.003000
      dx2y2   :     0.014919
      dxy     :     0.012546
  2 C s       :     3.289024  s :     3.289024
      pz      :     0.990283  p :     2.764926
      px      :     0.815503
      py      :     0.959139
      dz2     :     0.002727  d :     0.041153
      dxz     :     0.004463
      dyz     :     0.006263
      dx2y2   :     0.013685
      dxy     :     0.014015
  3 C s       :     3.110053  s :     3.110053
      pz      :     0.962830  p :     2.665696
      px      :     0.902885
      py      :     0.799981
      dz2     :     0.003424  d :     0.055326
      dxz     :     0.008026
      dyz     :     0.009005
      dx2y2   :     0.017365
      dxy     :     0.017506
  4 C s       :     3.283035  s :     3.283035
      pz      :     0.986326  p :     2.762171
      px      :     0.829996
      py      :     0.945848
      dz2     :     0.002725  d :     0.041187
      dxz     :     0.003926
      dyz     :     0.006813
      dx2y2   :     0.012972
      dxy     :     0.014750
  5 C s       :     3.286776  s :     3.286776
      pz      :     0.972354  p :     2.785600
      px      :     0.876336
      py      :     0.936910
      dz2     :     0.002817  d :     0.041624
      dxz     :     0.004173
      dyz     :     0.007103
      dx2y2   :     0.012757
      dxy     :     0.014774
  6 C s       :     3.157913  s :     3.157913
      pz      :     0.998677  p :     2.646053
      px      :     0.823462
      py      :     0.823913
      dz2     :     0.003711  d :     0.054037
      dxz     :     0.008033
      dyz     :     0.008177
      dx2y2   :     0.017105
      dxy     :     0.017011
  7 C s       :     3.077693  s :     3.077693
      pz      :     0.964242  p :     2.683879
      px      :     0.780381
      py      :     0.939256
      dz2     :     0.003751  d :     0.056614
      dxz     :     0.009889
      dyz     :     0.008924
      dx2y2   :     0.016918
      dxy     :     0.017133
  8 C s       :     3.242512  s :     3.242512
      pz      :     1.003474  p :     2.806196
      px      :     1.014729
      py      :     0.787993
      dz2     :     0.002820  d :     0.041083
      dxz     :     0.007714
      dyz     :     0.003155
      dx2y2   :     0.014877
      dxy     :     0.012517
  9 C s       :     3.288824  s :     3.288824
[...]
     88       0.014708  -0.007009   0.079385  -0.073719  -0.003227  -0.000117
     89      -0.000268   0.000131  -0.001480   0.001422   0.000053   0.000001
     90       0.073380  -0.030125   0.400009  -0.740007  -0.026672   0.000001
     91      -0.040621   0.016783  -0.221852   0.419160   0.015095   0.000039
     92       0.005724  -0.002360   0.031263  -0.058669  -0.002116  -0.000003
     93      -0.139010   0.054222  -0.717189  -0.418827  -0.014011  -0.000068
     94      -0.081335   0.032513  -0.432536  -0.254599  -0.008563  -0.000064
     95       0.001611  -0.000700   0.009489   0.005733   0.000196   0.000002
     96       0.056934   0.770036   0.048724  -0.013299   0.362679   0.001453
     97       0.033659   0.455283   0.028844  -0.007952   0.217769   0.001507
     98       0.000838   0.011301   0.000713  -0.000186   0.004991  -0.000050
     99       0.135141  -0.000753  -0.126661  -0.041483  -0.001557  -0.000042
    100       0.097094  -0.000409  -0.092876  -0.031549  -0.001208  -0.000054
    101      -0.003462   0.000003   0.003463   0.001254   0.000049   0.000003
    102       0.000658   0.021775   0.002058  -0.000581   0.015266   0.002946
    103       0.000481   0.016731   0.001565  -0.000470   0.012709   0.010525
    104       0.000012   0.000290   0.000026  -0.000007   0.000175  -0.000375
    105       0.000102   0.001819   0.000101  -0.000063   0.000737   0.102711
    106      -0.000292  -0.002125  -0.000173  -0.000050  -0.001366   0.991701
    107       0.000018   0.000177   0.000012  -0.000001   0.000093  -0.043550


-----------
IR SPECTRUM
-----------

 Mode   freq       eps      Int      T**2         TX        TY        TZ
       cm**-1   L/(mol*cm) km/mol    a.u.
----------------------------------------------------------------------------
  8:     26.09   0.000174    0.88  0.002082  (-0.002357  0.003896  0.045402)
  9:     65.16   0.000051    0.26  0.000245  (-0.000525  0.002237  0.015490)
 10:     71.89   0.000402    2.03  0.001745  ( 0.017842  0.037667 -0.002798)
 11:     99.85   0.000392    1.98  0.001226  (-0.002773  0.002167  0.034834)
 12:    121.04   0.000447    2.26  0.001154  (-0.030234 -0.015436 -0.001068)
 13:    142.47   0.000291    1.47  0.000637  ( 0.002234 -0.001293 -0.025110)
 14:    193.34   0.000043    0.22  0.000069  ( 0.000872  0.001396 -0.008142)
 15:    220.71   0.001363    6.89  0.001928  ( 0.003669  0.000347 -0.043751)
 16:    221.26   0.000300    1.51  0.000423  ( 0.007715  0.016684  0.009208)
 17:    255.15   0.000188    0.95  0.000230  (-0.008563 -0.012536  0.000022)
 18:    261.12   0.000058    0.29  0.000069  ( 0.001060 -0.000093 -0.008260)
 19:    285.80   0.002220   11.22  0.002424  (-0.002863  0.002862  0.049064)
 20:    316.35   0.000815    4.12  0.000804  (-0.019452  0.020511 -0.002230)
 21:    332.99   0.015053   76.07  0.014107  ( 0.006179 -0.006331 -0.118444)
 22:    352.50   0.000570    2.88  0.000505  (-0.017101  0.013938 -0.004238)
 23:    378.04   0.003671   18.55  0.003031  (-0.003071  0.003983  0.054820)
 24:    421.01   0.001802    9.11  0.001335  ( 0.020902 -0.029786  0.003369)
 25:    442.59   0.001521    7.69  0.001073  ( 0.022153 -0.024000  0.002410)
 26:    449.92   0.000038    0.19  0.000027  ( 0.000833 -0.000976 -0.005002)
 27:    493.56   0.000514    2.60  0.000325  ( 0.000848 -0.001829 -0.017921)
 28:    510.24   0.000643    3.25  0.000393  ( 0.009457 -0.017321  0.002008)
 29:    514.47   0.000125    0.63  0.000076  ( 0.006235  0.006027 -0.000688)
 30:    526.09   0.000018    0.09  0.000011  (-0.000202  0.000625 -0.003200)
 31:    531.31   0.001786    9.03  0.001049  ( 0.007764 -0.031355  0.002408)
 32:    562.79   0.000470    2.38  0.000261  (-0.009471  0.013036 -0.001073)
 33:    564.68   0.000000    0.00  0.000000  ( 0.000094 -0.000064  0.000192)
 34:    583.29   0.000155    0.78  0.000083  (-0.000280  0.001008  0.009034)
 35:    621.82   0.003379   17.07  0.001696  ( 0.018293 -0.036731  0.003421)
 36:    633.42   0.001151    5.82  0.000567  (-0.012604  0.020092 -0.002162)
 37:    679.63   0.000019    0.10  0.000009  (-0.000590  0.000363 -0.002903)
 38:    703.03   0.000238    1.20  0.000106  ( 0.006074 -0.008252  0.000819)
 39:    718.82   0.000967    4.89  0.000420  (-0.000677  0.001469  0.020424)
 40:    755.11   0.002840   14.35  0.001173  ( 0.001064 -0.002565 -0.034143)
 41:    764.68   0.000973    4.92  0.000397  (-0.012253  0.015692 -0.000862)
 42:    784.35   0.000294    1.49  0.000117  (-0.007456  0.007811 -0.000677)
 43:    815.53   0.000076    0.38  0.000029  (-0.001495  0.002677 -0.004441)
 44:    816.29   0.010449   52.80  0.003994  ( 0.029987 -0.055380  0.005314)
 45:    832.40   0.002552   12.90  0.000957  ( 0.001515 -0.003386 -0.030708)
 46:    853.84   0.000025    0.13  0.000009  (-0.001269  0.001421  0.002349)
 47:    858.64   0.002705   13.67  0.000983  ( 0.022070 -0.022133  0.002490)
 48:    875.88   0.007365   37.22  0.002624  ( 0.001876 -0.004001 -0.051034)
 49:    886.10   0.001433    7.24  0.000505  (-0.001677  0.003181  0.022179)
 50:    894.62   0.001762    8.91  0.000615  (-0.000431  0.001536  0.024743)
 51:    944.86   0.000139    0.70  0.000046  (-0.000165 -0.000029  0.006772)
 52:    947.52   0.006840   34.57  0.002253  (-0.002862  0.003910  0.047216)
 53:    984.71   0.002376   12.01  0.000753  (-0.007230  0.016264  0.020882)
 54:    984.80   0.002443   12.35  0.000774  (-0.004682  0.011024 -0.025116)
 55:    990.61   0.000041    0.21  0.000013  ( 0.000010  0.000647  0.003533)
 56:    999.86   0.001174    5.93  0.000367  ( 0.011590 -0.015098  0.002058)
 57:   1001.60   0.001175    5.94  0.000366  ( 0.000987 -0.002023 -0.018999)
 58:   1011.91   0.000050    0.25  0.000015  (-0.000250  0.000396  0.003888)
 59:   1017.55   0.000002    0.01  0.000000  ( 0.000137 -0.000184  0.000660)
 60:   1040.52   0.000089    0.45  0.000027  (-0.004657 -0.002230 -0.000051)
 61:   1116.64   0.001697    8.58  0.000474  (-0.007882  0.020239 -0.001578)
 62:   1131.39   0.000137    0.69  0.000038  (-0.005728  0.002218 -0.000320)
 63:   1167.99   0.002256   11.40  0.000603  (-0.002224  0.024400 -0.001543)
 64:   1184.41   0.000379    1.91  0.000100  (-0.005386  0.008373 -0.000809)
 65:   1195.46   0.000230    1.16  0.000060  ( 0.005994 -0.004900  0.000385)
 66:   1204.13   0.005823   29.43  0.001509  (-0.036531  0.013052 -0.002037)
 67:   1209.66   0.016249   82.11  0.004192  ( 0.055367 -0.033267  0.004424)
 68:   1231.72   0.079621  402.37  0.020172  ( 0.085274 -0.113040  0.011081)
 69:   1250.48   0.051087  258.17  0.012749  ( 0.062901 -0.093309  0.009260)
 70:   1265.70   0.009034   45.65  0.002227  (-0.020938  0.042076 -0.004300)
 71:   1269.74   0.001293    6.53  0.000318  (-0.001761  0.017641 -0.001837)
 72:   1282.03   0.001820    9.20  0.000443  ( 0.015824 -0.013773  0.001727)
 73:   1283.89   0.012275   62.03  0.002984  (-0.041914  0.034792 -0.004030)
 74:   1331.56   0.009681   48.92  0.002269  ( 0.026404 -0.039463  0.003780)
 75:   1335.31   0.002712   13.71  0.000634  ( 0.015330 -0.019904  0.001644)
 76:   1351.23   0.000783    3.96  0.000181  (-0.009131 -0.009867  0.000106)
 77:   1373.53   0.000048    0.24  0.000011  (-0.002693  0.001920 -0.000253)
 78:   1384.98   0.014107   71.29  0.003179  (-0.045985  0.032320 -0.004388)
 79:   1406.35   0.001068    5.40  0.000237  (-0.006847  0.013731 -0.001257)
 80:   1412.10   0.004343   21.95  0.000960  ( 0.020489 -0.023090  0.002613)
 81:   1425.11   0.001272    6.43  0.000279  (-0.003157 -0.016347  0.001178)
 82:   1443.66   0.000613    3.10  0.000133  (-0.005178  0.010240 -0.000925)
 83:   1468.93   0.001329    6.72  0.000282  (-0.014024  0.009180 -0.001206)
 84:   1505.61   0.000562    2.84  0.000116  ( 0.007845  0.007401 -0.000268)
 85:   1537.04   0.000562    2.84  0.000114  ( 0.010654  0.000786  0.000171)
 86:   1547.67   0.004695   23.73  0.000947  ( 0.013316 -0.027602  0.002731)
 87:   1575.83   0.003919   19.80  0.000776  ( 0.018598 -0.020622  0.002217)
 88:   1622.44   0.001026    5.18  0.000197  ( 0.002706 -0.013736  0.001141)
 89:   1637.88   0.062682  316.77  0.011943  (-0.058998  0.091512 -0.009355)
 90:   1657.66   0.006591   33.31  0.001241  ( 0.000294 -0.035064  0.003336)
 91:   1663.87   0.020469  103.44  0.003839  ( 0.035247 -0.050662  0.005491)
 92:   1674.91   0.000763    3.85  0.000142  (-0.001558 -0.011806  0.000545)
 93:   1733.82   0.083806  423.52  0.015084  (-0.061975  0.105619 -0.009361)
 94:   2336.73   0.028931  146.21  0.003864  ( 0.038986 -0.048071  0.005741)
 95:   3154.70   0.002166   10.95  0.000214  ( 0.014513  0.001788  0.000699)
 96:   3171.39   0.000137    0.69  0.000014  (-0.001371  0.003399 -0.000262)
 97:   3174.23   0.000227    1.14  0.000022  ( 0.001665  0.004402 -0.000349)
 98:   3174.49   0.002471   12.49  0.000243  ( 0.015516 -0.001344  0.000582)
 99:   3176.12   0.003112   15.73  0.000306  ( 0.016409 -0.005921  0.001193)
100:   3179.38   0.000793    4.01  0.000078  (-0.007046 -0.005307  0.000157)
101:   3193.58   0.004838   24.45  0.000473  ( 0.006672  0.020652 -0.001322)
102:   3199.59   0.002080   10.51  0.000203  (-0.006627 -0.012592  0.000659)
103:   3200.64   0.001591    8.04  0.000155  (-0.005039  0.011343 -0.001047)
104:   3201.01   0.000249    1.26  0.000024  ( 0.003297 -0.003626  0.000469)
105:   3222.61   0.002903   14.67  0.000281  ( 0.015756 -0.005644  0.001009)
106:   3224.17   0.002673   13.51  0.000259  (-0.015356  0.004689 -0.000931)
107:   3849.67   0.063883  322.84  0.005179  (-0.022813  0.068072 -0.004920)

* The epsilon (eps) is given for a Dirac delta lineshape.
** The dipole moment derivative (T) already includes vibrational overlap.

The first frequency considered to be a vibration is 8
The total number of vibrations considered is 100


--------------------------
THERMOCHEMISTRY AT 298.15K
--------------------------

Temperature         ... 298.15 K
Pressure            ... 1.00 atm
Total Mass          ... 295.34 AMU

Throughout the following assumptions are being made:
  (1) The electronic state is orbitally nondegenerate
  (2) There are no thermally accessible electronically excited states
  (3) Hindered rotations indicated by low frequency modes are not
      treated as such but are treated as vibrations and this may
      cause some error
  (4) All equations used are the standard statistical mechanics
      equations for an ideal gas
  (5) All vibrations are strictly harmonic

freq.      26.09  E(vib)   ...       0.56 
freq.      65.16  E(vib)   ...       0.50 
freq.      71.89  E(vib)   ...       0.50 
freq.      99.85  E(vib)   ...       0.46 
freq.     121.04  E(vib)   ...       0.44 
freq.     142.47  E(vib)   ...       0.41 
freq.     193.34  E(vib)   ...       0.36 
freq.     220.71  E(vib)   ...       0.33 
freq.     221.26  E(vib)   ...       0.33 
freq.     255.15  E(vib)   ...       0.30 
freq.     261.12  E(vib)   ...       0.30 
freq.     285.80  E(vib)   ...       0.27 
freq.     316.35  E(vib)   ...       0.25 
freq.     332.99  E(vib)   ...       0.24 
freq.     352.50  E(vib)   ...       0.22 
freq.     378.04  E(vib)   ...       0.21 
freq.     421.01  E(vib)   ...       0.18 
freq.     442.59  E(vib)   ...       0.17 
freq.     449.92  E(vib)   ...       0.17 
freq.     493.56  E(vib)   ...       0.14 
freq.     510.24  E(vib)   ...       0.14 
freq.     514.47  E(vib)   ...       0.13 
freq.     526.09  E(vib)   ...       0.13 
freq.     531.31  E(vib)   ...       0.13 
freq.     562.79  E(vib)   ...       0.11 
freq.     564.68  E(vib)   ...       0.11 
freq.     583.29  E(vib)   ...       0.11 
freq.     621.82  E(vib)   ...       0.09 
freq.     633.42  E(vib)   ...       0.09 
freq.     679.63  E(vib)   ...       0.08 
freq.     703.03  E(vib)   ...       0.07 
freq.     718.82  E(vib)   ...       0.07 
freq.     755.11  E(vib)   ...       0.06 
freq.     764.68  E(vib)   ...       0.06 
freq.     784.35  E(vib)   ...       0.05 
freq.     815.53  E(vib)   ...       0.05 
freq.     816.29  E(vib)   ...       0.05 
freq.     832.40  E(vib)   ...       0.04 
freq.     853.84  E(vib)   ...       0.04 
freq.     858.64  E(vib)   ...       0.04 
freq.     875.88  E(vib)   ...       0.04 
freq.     886.10  E(vib)   ...       0.04 
freq.     894.62  E(vib)   ...       0.03 
freq.     944.86  E(vib)   ...       0.03 
freq.     947.52  E(vib)   ...       0.03 
freq.     984.71  E(vib)   ...       0.02 
freq.     984.80  E(vib)   ...       0.02 
freq.     990.61  E(vib)   ...       0.02 
freq.     999.86  E(vib)   ...       0.02 
freq.    1001.60  E(vib)   ...       0.02 
freq.    1011.91  E(vib)   ...       0.02 
freq.    1017.55  E(vib)   ...       0.02 
freq.    1040.52  E(vib)   ...       0.02 
freq.    1116.64  E(vib)   ...       0.01 
freq.    1131.39  E(vib)   ...       0.01 
freq.    1167.99  E(vib)   ...       0.01 
freq.    1184.41  E(vib)   ...       0.01 
freq.    1195.46  E(vib)   ...       0.01 
freq.    1204.13  E(vib)   ...       0.01 
freq.    1209.66  E(vib)   ...       0.01 
freq.    1231.72  E(vib)   ...       0.01 
freq.    1250.48  E(vib)   ...       0.01 
freq.    1265.70  E(vib)   ...       0.01 
freq.    1269.74  E(vib)   ...       0.01 
freq.    1282.03  E(vib)   ...       0.01 
freq.    1283.89  E(vib)   ...       0.01 
freq.    1331.56  E(vib)   ...       0.01 
freq.    1335.31  E(vib)   ...       0.01 
freq.    1351.23  E(vib)   ...       0.01 
freq.    1373.53  E(vib)   ...       0.01 
freq.    1384.98  E(vib)   ...       0.00 
freq.    1406.35  E(vib)   ...       0.00 
freq.    1412.10  E(vib)   ...       0.00 
freq.    1425.11  E(vib)   ...       0.00 
freq.    1443.66  E(vib)   ...       0.00 
freq.    1468.93  E(vib)   ...       0.00 
freq.    1505.61  E(vib)   ...       0.00 
freq.    1537.04  E(vib)   ...       0.00 
freq.    1547.67  E(vib)   ...       0.00 
freq.    1575.83  E(vib)   ...       0.00 
freq.    1622.44  E(vib)   ...       0.00 
freq.    1637.88  E(vib)   ...       0.00 
freq.    1657.66  E(vib)   ...       0.00 
freq.    1663.87  E(vib)   ...       0.00 
freq.    1674.91  E(vib)   ...       0.00 
freq.    1733.82  E(vib)   ...       0.00 
freq.    2336.73  E(vib)   ...       0.00 
freq.    3154.70  E(vib)   ...       0.00 
freq.    3171.39  E(vib)   ...       0.00 
freq.    3174.23  E(vib)   ...       0.00 
freq.    3174.49  E(vib)   ...       0.00 
freq.    3176.12  E(vib)   ...       0.00 
freq.    3179.38  E(vib)   ...       0.00 
freq.    3193.58  E(vib)   ...       0.00 
freq.    3199.59  E(vib)   ...       0.00 
freq.    3200.64  E(vib)   ...       0.00 
freq.    3201.01  E(vib)   ...       0.00 
freq.    3222.61  E(vib)   ...       0.00 
freq.    3224.17  E(vib)   ...       0.00 
freq.    3849.67  E(vib)   ...       0.00 

------------
INNER ENERGY
------------

The inner energy is: U= E(el) + E(ZPE) + E(vib) + E(rot) + E(trans)
    E(el)   - is the total energy from the electronic structure calculation
              = E(kin-el) + E(nuc-el) + E(el-el) + E(nuc-nuc)
    E(ZPE)  - the the zero temperature vibrational energy from the frequency calculation
    E(vib)  - the the finite temperature correction to E(ZPE) due to population
              of excited vibrational states
    E(rot)  - is the rotational thermal energy
    E(trans)- is the translational thermal energy

Summary of contributions to the inner energy U:
Electronic energy                ...   -936.78874184 Eh
Zero point energy                ...      0.27725935 Eh     173.98 kcal/mol
Thermal vibrational correction   ...      0.01358568 Eh       8.53 kcal/mol
Thermal rotational correction    ...      0.00141627 Eh       0.89 kcal/mol
Thermal translational correction ...      0.00141627 Eh       0.89 kcal/mol
-----------------------------------------------------------------------
Total thermal energy                   -936.49506427 Eh


Summary of corrections to the electronic energy:
(perhaps to be used in another calculation)
Total thermal correction                  0.01641822 Eh      10.30 kcal/mol
Non-thermal (ZPE) correction              0.27725935 Eh     173.98 kcal/mol
-----------------------------------------------------------------------
Total correction                          0.29367758 Eh     184.29 kcal/mol


--------
ENTHALPY
--------

The enthalpy is H = U + kB*T
                kB is Boltzmann's constant
Total free energy                 ...   -936.49506427 Eh 
Thermal Enthalpy correction       ...      0.00094421 Eh       0.59 kcal/mol
-----------------------------------------------------------------------
Total Enthalpy                    ...   -936.49412006 Eh


Note: Only C1 symmetry has been detected, increase convergence thresholds 
      if your molecule has a higher symmetry. Symmetry factor of 1.0 is   
      used for the rotational entropy correction. 
 

Note: Rotational entropy computed according to Herzberg 
Infrared and Raman Spectra, Chapter V,1, Van Nostrand Reinhold, 1945 
Point Group:  C1, Symmetry Number:   1  
Rotational constants in cm-1:     0.026215     0.003928     0.003416 

Vibrational entropy computed according to the QRRHO of S. Grimme
Chem.Eur.J. 2012 18 9955


-------
ENTROPY
-------

The entropy contributions are T*S = T*(S(el)+S(vib)+S(rot)+S(trans))
     S(el)   - electronic entropy
     S(vib)  - vibrational entropy
     S(rot)  - rotational entropy
     S(trans)- translational entropy
The entropies will be listed as multiplied by the temperature to get
units of energy

Electronic entropy                ...      0.00000000 Eh      0.00 kcal/mol
Vibrational entropy               ...      0.02293438 Eh     14.39 kcal/mol
Rotational entropy                ...      0.01652619 Eh     10.37 kcal/mol
Translational entropy             ...      0.02040501 Eh     12.80 kcal/mol
-----------------------------------------------------------------------
Final entropy term                ...      0.05986557 Eh     37.57 kcal/mol

In case the symmetry of your molecule has not been determined correctly
or in case you have a reason to use a different symmetry number we print 
out the resulting rotational entropy values for sn=1,12 :
 --------------------------------------------------------
|  sn= 1 | S(rot)=       0.01652619 Eh     10.37 kcal/mol|
|  sn= 2 | S(rot)=       0.01587173 Eh      9.96 kcal/mol|
|  sn= 3 | S(rot)=       0.01548890 Eh      9.72 kcal/mol|
|  sn= 4 | S(rot)=       0.01521727 Eh      9.55 kcal/mol|
|  sn= 5 | S(rot)=       0.01500658 Eh      9.42 kcal/mol|
|  sn= 6 | S(rot)=       0.01483444 Eh      9.31 kcal/mol|
|  sn= 7 | S(rot)=       0.01468889 Eh      9.22 kcal/mol|
|  sn= 8 | S(rot)=       0.01456282 Eh      9.14 kcal/mol|
|  sn= 9 | S(rot)=       0.01445161 Eh      9.07 kcal/mol|
|  sn=10 | S(rot)=       0.01435213 Eh      9.01 kcal/mol|
|  sn=11 | S(rot)=       0.01426214 Eh      8.95 kcal/mol|
|  sn=12 | S(rot)=       0.01417998 Eh      8.90 kcal/mol|
 --------------------------------------------------------


-------------------
GIBBS FREE ENERGY
-------------------

The Gibbs free energy is G = H - T*S

Total enthalpy                    ...   -936.49412006 Eh 
Total entropy correction          ...     -0.05986557 Eh    -37.57 kcal/mol
-----------------------------------------------------------------------
Final Gibbs free energy         ...   -936.55398563 Eh

For completeness - the Gibbs free energy minus the electronic energy
G-E(el)                           ...      0.23475621 Eh    147.31 kcal/mol


Timings for individual modules:

Sum of individual times         ...     1574.169 sec (=  26.236 min)
GTO integral calculation        ...       51.761 sec (=   0.863 min)   3.3 %
SCF iterations                  ...      743.513 sec (=  12.392 min)  47.2 %
SCF Gradient evaluation         ...      170.219 sec (=   2.837 min)  10.8 %
Geometry relaxation             ...        2.427 sec (=   0.040 min)   0.2 %
Analytical frequency calculation...      606.249 sec (=  10.104 min)  38.5 %
                             ****ORCA TERMINATED NORMALLY****
TOTAL RUN TIME: 0 days 0 hours 26 minutes 32 seconds 250 msec
