 Entering Gaussian System, Link 0=g16
 Initial command:
 /opt/bwhpc/common/chem/gaussian/g16.C.01/x86_64-Intel-avx2-source/g16/l1.exe "/scratch/ka_pr7831.18368312/Gau-3724802.inp" -scrdir="/scratch/ka_pr7831.18368312/"
 Entering Link 1 = /opt/bwhpc/common/chem/gaussian/g16.C.01/x86_64-Intel-avx2-source/g16/l1.exe PID=   3724809.
  
 Copyright (c) 1988-2019, Gaussian, Inc.  All Rights Reserved.
  
 This is part of the Gaussian(R) 16 program.  It is based on
 the Gaussian(R) 09 system (copyright 2009, Gaussian, Inc.),
 the Gaussian(R) 03 system (copyright 2003, Gaussian, Inc.),
 the Gaussian(R) 98 system (copyright 1998, Gaussian, Inc.),
 the Gaussian(R) 94 system (copyright 1995, Gaussian, Inc.),
 the Gaussian 92(TM) system (copyright 1992, Gaussian, Inc.),
 the Gaussian 90(TM) system (copyright 1990, Gaussian, Inc.),
 the Gaussian 88(TM) system (copyright 1988, Gaussian, Inc.),
 the Gaussian 86(TM) system (copyright 1986, Carnegie Mellon
 University), and the Gaussian 82(TM) system (copyright 1983,
 Carnegie Mellon University). Gaussian is a federally registered
 trademark of Gaussian, Inc.
  
 This software contains proprietary and confidential information,
 including trade secrets, belonging to Gaussian, Inc.
  
 This software is provided under written license and may be
 used, copied, transmitted, or stored only in accord with that
 written license.
  
 The following legend is applicable only to US Government
 contracts under FAR:
  
                    RESTRICTED RIGHTS LEGEND
  
 Use, reproduction and disclosure by the US Government is
 subject to restrictions as set forth in subparagraphs (a)
 and (c) of the Commercial Computer Software - Restricted
 Rights clause in FAR 52.227-19.
  
 Gaussian, Inc.
 340 Quinnipiac St., Bldg. 40, Wallingford CT 06492
  
  
 ---------------------------------------------------------------
 Warning -- This program may not be used in any manner that
 competes with the business of Gaussian, Inc. or will provide
 assistance to any competitor of Gaussian, Inc.  The licensee
 of this program is prohibited from giving any competitor of
 Gaussian, Inc. access to this program.  By using this program,
 the user acknowledges that Gaussian, Inc. is engaged in the
 business of creating and licensing software in the field of
 computational chemistry and represents and warrants to the
 licensee that it is not a competitor of Gaussian, Inc. and that
 it will not use this program in any manner prohibited above.
 ---------------------------------------------------------------
  

 Cite this work as:
 Gaussian 16, Revision C.01,
 M. J. Frisch, G. W. Trucks, H. B. Schlegel, G. E. Scuseria, 
 M. A. Robb, J. R. Cheeseman, G. Scalmani, V. Barone, 
 G. A. Petersson, H. Nakatsuji, X. Li, M. Caricato, A. V. Marenich, 
 J. Bloino, B. G. Janesko, R. Gomperts, B. Mennucci, H. P. Hratchian, 
 J. V. Ortiz, A. F. Izmaylov, J. L. Sonnenberg, D. Williams-Young, 
 F. Ding, F. Lipparini, F. Egidi, J. Goings, B. Peng, A. Petrone, 
 T. Henderson, D. Ranasinghe, V. G. Zakrzewski, J. Gao, N. Rega, 
 G. Zheng, W. Liang, M. Hada, M. Ehara, K. Toyota, R. Fukuda, 
 J. Hasegawa, M. Ishida, T. Nakajima, Y. Honda, O. Kitao, H. Nakai, 
 T. Vreven, K. Throssell, J. A. Montgomery, Jr., J. E. Peralta, 
 F. Ogliaro, M. J. Bearpark, J. J. Heyd, E. N. Brothers, K. N. Kudin, 
 V. N. Staroverov, T. A. Keith, R. Kobayashi, J. Normand, 
 K. Raghavachari, A. P. Rendell, J. C. Burant, S. S. Iyengar, 
 J. Tomasi, M. Cossi, J. M. Millam, M. Klene, C. Adamo, R. Cammi, 
 J. W. Ochterski, R. L. Martin, K. Morokuma, O. Farkas, 
 J. B. Foresman, and D. J. Fox, Gaussian, Inc., Wallingford CT, 2019.
 
 ******************************************
 Gaussian 16:  ES64L-G16RevC.01  3-Jul-2019
                15-Aug-2025 
 ******************************************
 %chk=mp2.chk
 %mem=10GB
 %nprocs=16
 Will use up to   16 processors via shared memory.
 --------------------------
 #P mp2/cc-pvdz polar=Cubic
 --------------------------
 1/30=1,38=101,172=1/1,6;
 2/12=2,17=6,18=5,40=1/2;
 3/5=16,11=9,25=1,30=1,71=2,140=1/1,2,3;
 4/69=2/1;
 5/5=2,38=5,98=1/2;
 8/6=4,8=1,10=1,19=10,30=-1/1;
 9/15=5,16=-3/6;
 10/6=2,13=10,21=1,60=-2/2;
 8/6=4,8=1,10=1,19=10,30=-1/11,4;
 10/5=1,13=10,20=4,60=-2/2;
 11/12=2,14=10,16=1,17=2,28=-2,32=3,42=3/12;
 6/7=2,8=2,9=2,10=2,22=-1/1;
 1/38=100/6(1);
 99/9=1/99;
 3/5=16,11=9,14=-3,25=1,30=1,71=2,140=1/1,2,3;
 4/5=5,16=3,69=2/1;
 5/5=2,38=5,98=1/2;
 8/6=4,8=1,10=1,19=10,30=-1/1;
 9/15=5,16=-3/6;
 10/6=2,13=10,21=1,60=-2/2;
 8/6=4,8=1,10=1,19=10,30=-1/11,4;
 10/5=1,13=10,20=4,60=-2/2;
 11/12=2,14=10,16=1,17=2,28=-2,32=3,42=3/12;
 6/7=2,8=2,9=2,10=2,22=-1/1;
 1/38=100/6(-10);
 99/9=1/99;
 Leave Link    1 at Fri Aug 15 18:36:20 2025, MaxMem=  1342177280 cpu:               0.4 elap:               0.0
 (Enter /opt/bwhpc/common/chem/gaussian/g16.C.01/x86_64-Intel-avx2-source/g16/l101.exe)
 -
 p
 -
 Symbolic Z-matrix:
 Charge =  0 Multiplicity = 1
 C                    -7.10551   2.73911  -0.26296 
 C                    -5.8432    3.3744   -0.26659 
 C                    -4.66472   2.66133  -0.14677 
 C                    -4.6817    1.25692  -0.01266 
 C                    -3.47443   0.49678   0.10414 
 C                    -3.49905  -0.86305   0.2354 
 C                    -4.7333   -1.59729   0.2709 
 C                    -4.77244  -3.0192    0.41555 
 C                    -6.03305  -3.65352   0.4239 
 C                    -7.21615  -2.94341   0.28013 
 C                    -7.20856  -1.5431    0.14014 
 C                    -8.41442  -0.78311   0.00994 
 C                    -8.39528   0.57667  -0.11725 
 C                    -7.16126   1.31446  -0.12893 
 C                    -5.93623   0.57161  -0.00011 
 C                    -5.95641  -0.85669   0.1391 
 C                    -8.32488   3.52335  -0.39439 
 C                    -3.54253  -3.80169   0.56685 
 C                    -8.42843   4.86037  -0.52525 
 C                    -3.40526  -5.10161   0.24021 
 O                    -2.24567  -5.76695   0.45254 
 N                    -9.7353    5.48527  -0.64664 
 O                    -9.73297   6.70587  -0.76188 
 O                    -10.74208   4.78761  -0.62915 
 H                    -5.79177   4.4601   -0.36843 
 H                    -3.70468   3.18397  -0.15599 
 H                    -2.51965   1.02903   0.08081 
 H                    -2.55447  -1.40283   0.30557 
 H                    -6.08329  -4.73313   0.58165 
 H                    -8.17387  -3.47113   0.29785 
 H                    -9.36923  -1.31637   0.01426 
 H                    -9.3438    1.10418  -0.21267 
 H                    -9.28575   3.00632  -0.39096 
 H                    -2.65171  -3.31398   0.97032 
 H                    -7.62936   5.59782  -0.55658 
 H                    -4.21782  -5.67632  -0.22073 
 H                    -2.30839  -6.66057   0.09464 
 
 ITRead=  0  0  0  0  0  0  0  0  0  0  0  0  0  0  0  0  0  0  0  0
 ITRead=  0  0  0  0  0  0  0  0  0  0  0  0  0  0  0  0  0
 MicOpt= -1 -1 -1 -1 -1 -1 -1 -1 -1 -1 -1 -1 -1 -1 -1 -1 -1 -1 -1 -1
 MicOpt= -1 -1 -1 -1 -1 -1 -1 -1 -1 -1 -1 -1 -1 -1 -1 -1 -1
 NAtoms=     37 NQM=       37 NQMF=       0 NMMI=      0 NMMIF=      0
                NMic=       0 NMicF=      0.
                    Isotopes and Nuclear Properties:
 (Nuclear quadrupole moments (NQMom) in fm**2, nuclear magnetic moments (NMagM)
  in nuclear magnetons)

  Atom         1           2           3           4           5           6           7           8           9          10
 IAtWgt=          12          12          12          12          12          12          12          12          12          12
 AtmWgt=  12.0000000  12.0000000  12.0000000  12.0000000  12.0000000  12.0000000  12.0000000  12.0000000  12.0000000  12.0000000
 NucSpn=           0           0           0           0           0           0           0           0           0           0
 AtZEff=  -0.0000000  -0.0000000  -0.0000000  -0.0000000  -0.0000000  -0.0000000  -0.0000000  -0.0000000  -0.0000000  -0.0000000
 NQMom=    0.0000000   0.0000000   0.0000000   0.0000000   0.0000000   0.0000000   0.0000000   0.0000000   0.0000000   0.0000000
 NMagM=    0.0000000   0.0000000   0.0000000   0.0000000   0.0000000   0.0000000   0.0000000   0.0000000   0.0000000   0.0000000
 AtZNuc=   6.0000000   6.0000000   6.0000000   6.0000000   6.0000000   6.0000000   6.0000000   6.0000000   6.0000000   6.0000000

  Atom        11          12          13          14          15          16          17          18          19          20
 IAtWgt=          12          12          12          12          12          12          12          12          12          12
 AtmWgt=  12.0000000  12.0000000  12.0000000  12.0000000  12.0000000  12.0000000  12.0000000  12.0000000  12.0000000  12.0000000
 NucSpn=           0           0           0           0           0           0           0           0           0           0
 AtZEff=  -0.0000000  -0.0000000  -0.0000000  -0.0000000  -0.0000000  -0.0000000  -0.0000000  -0.0000000  -0.0000000  -0.0000000
 NQMom=    0.0000000   0.0000000   0.0000000   0.0000000   0.0000000   0.0000000   0.0000000   0.0000000   0.0000000   0.0000000
 NMagM=    0.0000000   0.0000000   0.0000000   0.0000000   0.0000000   0.0000000   0.0000000   0.0000000   0.0000000   0.0000000
 AtZNuc=   6.0000000   6.0000000   6.0000000   6.0000000   6.0000000   6.0000000   6.0000000   6.0000000   6.0000000   6.0000000

  Atom        21          22          23          24          25          26          27          28          29          30
 IAtWgt=          16          14          16          16           1           1           1           1           1           1
 AtmWgt=  15.9949146  14.0030740  15.9949146  15.9949146   1.0078250   1.0078250   1.0078250   1.0078250   1.0078250   1.0078250
 NucSpn=           0           2           0           0           1           1           1           1           1           1
 AtZEff=  -0.0000000  -0.0000000  -0.0000000  -0.0000000  -0.0000000  -0.0000000  -0.0000000  -0.0000000  -0.0000000  -0.0000000
 NQMom=    0.0000000   2.0440000   0.0000000   0.0000000   0.0000000   0.0000000   0.0000000   0.0000000   0.0000000   0.0000000
 NMagM=    0.0000000   0.4037610   0.0000000   0.0000000   2.7928460   2.7928460   2.7928460   2.7928460   2.7928460   2.7928460
 AtZNuc=   8.0000000   7.0000000   8.0000000   8.0000000   1.0000000   1.0000000   1.0000000   1.0000000   1.0000000   1.0000000

  Atom        31          32          33          34          35          36          37
 IAtWgt=           1           1           1           1           1           1           1
 AtmWgt=   1.0078250   1.0078250   1.0078250   1.0078250   1.0078250   1.0078250   1.0078250
 NucSpn=           1           1           1           1           1           1           1
 AtZEff=  -0.0000000  -0.0000000  -0.0000000  -0.0000000  -0.0000000  -0.0000000  -0.0000000
 NQMom=    0.0000000   0.0000000   0.0000000   0.0000000   0.0000000   0.0000000   0.0000000
 NMagM=    2.7928460   2.7928460   2.7928460   2.7928460   2.7928460   2.7928460   2.7928460
 AtZNuc=   1.0000000   1.0000000   1.0000000   1.0000000   1.0000000   1.0000000   1.0000000
 Leave Link  101 at Fri Aug 15 18:36:20 2025, MaxMem=  1342177280 cpu:               1.4 elap:               0.1
 (Enter /opt/bwhpc/common/chem/gaussian/g16.C.01/x86_64-Intel-avx2-source/g16/l106.exe)
 Differentiate once with respect to electric field.
 Nuclear step= 0.001000 Angstroms, electric field step= 0.000333 atomic units, NStep=1.
 Leave Link  106 at Fri Aug 15 18:36:20 2025, MaxMem=  1342177280 cpu:               0.0 elap:               0.0
 (Enter /opt/bwhpc/common/chem/gaussian/g16.C.01/x86_64-Intel-avx2-source/g16/l202.exe)
                          Input orientation:                          
 ---------------------------------------------------------------------
 Center     Atomic      Atomic             Coordinates (Angstroms)
 Number     Number       Type             X           Y           Z
 ---------------------------------------------------------------------
      1          6           0       -7.105512    2.739110   -0.262962
      2          6           0       -5.843200    3.374401   -0.266591
      3          6           0       -4.664723    2.661330   -0.146770
      4          6           0       -4.681698    1.256922   -0.012659
      5          6           0       -3.474433    0.496777    0.104136
      6          6           0       -3.499049   -0.863050    0.235402
      7          6           0       -4.733304   -1.597292    0.270901
      8          6           0       -4.772442   -3.019201    0.415550
      9          6           0       -6.033054   -3.653519    0.423904
     10          6           0       -7.216152   -2.943414    0.280131
     11          6           0       -7.208557   -1.543099    0.140138
     12          6           0       -8.414420   -0.783111    0.009941
     13          6           0       -8.395285    0.576672   -0.117252
     14          6           0       -7.161259    1.314461   -0.128930
     15          6           0       -5.936229    0.571608   -0.000108
     16          6           0       -5.956408   -0.856686    0.139099
     17          6           0       -8.324880    3.523346   -0.394389
     18          6           0       -3.542530   -3.801690    0.566854
     19          6           0       -8.428432    4.860366   -0.525248
     20          6           0       -3.405262   -5.101607    0.240215
     21          8           0       -2.245669   -5.766950    0.452542
     22          7           0       -9.735296    5.485266   -0.646643
     23          8           0       -9.732972    6.705873   -0.761884
     24          8           0      -10.742084    4.787615   -0.629151
     25          1           0       -5.791767    4.460096   -0.368427
     26          1           0       -3.704680    3.183970   -0.155987
     27          1           0       -2.519647    1.029032    0.080813
     28          1           0       -2.554470   -1.402831    0.305569
     29          1           0       -6.083294   -4.733126    0.581653
     30          1           0       -8.173868   -3.471127    0.297854
     31          1           0       -9.369228   -1.316365    0.014265
     32          1           0       -9.343796    1.104183   -0.212668
     33          1           0       -9.285747    3.006319   -0.390963
     34          1           0       -2.651714   -3.313979    0.970323
     35          1           0       -7.629360    5.597821   -0.556584
     36          1           0       -4.217817   -5.676320   -0.220734
     37          1           0       -2.308390   -6.660570    0.094644
 ---------------------------------------------------------------------
                    Distance matrix (angstroms):
                    1          2          3          4          5
     1  C    0.000000
     2  C    1.413167   0.000000
     3  C    2.444791   1.382619   0.000000
     4  C    2.852089   2.428433   1.410899   0.000000
     5  C    4.283405   3.745560   2.482949   1.431415   0.000000
     6  C    5.121572   4.868576   3.731769   2.440178   1.366370
     7  C    4.971595   5.122353   4.279604   2.868728   2.449018
     8  C    6.249939   6.518435   5.709312   4.298468   3.760839
     9  C    6.518256   7.064311   6.486549   5.111671   4.886077
    10  C    5.709490   6.488351   6.172940   4.914469   5.085897
    11  C    4.302374   5.119711   4.922462   3.774716   4.255123
    12  C    3.767460   4.896177   5.094012   4.253876   5.103965
    13  C    2.522079   3.789819   4.273612   3.776825   4.926477
    14  C    1.432026   2.449405   2.836736   2.482953   3.783598
    15  C    2.476768   2.816970   2.450546   1.429567   2.465138
    16  C    3.796293   4.251999   3.758538   2.472904   2.827240
    17  C    1.455732   2.489428   3.768440   4.307572   5.738944
    18  C    7.494365   7.581821   6.598425   5.217576   4.323837
    19  C    2.513690   2.993062   4.375444   5.223559   6.631677
    20  C    8.684577   8.834202   7.873957   6.490310   5.600465
    21  O    9.822580   9.850060   8.789021   7.448853   6.392615
    22  N    3.821563   4.443940   5.825392   6.619644   8.040342
    23  O    4.784107   5.145323   6.513359   7.467783   8.858453
    24  O    4.189883   5.111525   6.456632   7.040891   8.471585
    25  H    2.167682   1.091673   2.134226   3.408688   4.615328
    26  H    3.431473   2.149829   1.093124   2.165323   2.709554
    27  H    4.906395   4.082579   2.705095   2.176036   1.093369
    28  H    6.179878   5.827956   4.601650   3.420622   2.120241
    29  H    7.588980   8.155315   7.564451   6.180481   5.863963
    30  H    6.326369   7.253405   7.079465   5.886096   6.153575
    31  H    4.652756   5.874951   6.162821   5.347474   6.167996
    32  H    2.772261   4.172646   4.931813   4.668886   5.909207
    33  H    2.200274   3.464402   4.640314   4.939714   6.349354
    34  H    7.615589   7.513319   6.403469   5.097079   3.993621
    35  H    2.921106   2.866716   4.192852   5.275223   6.612157
    36  H    8.897192   9.195626   8.349946   6.951857   6.226178
    37  H   10.559083  10.645469   9.618129   8.266243   7.251714
                    6          7          8          9         10
     6  C    0.000000
     7  C    1.436578   0.000000
     8  C    2.510572   1.429784   0.000000
     9  C    3.774047   2.437382   1.411230   0.000000
    10  C    4.259902   2.824299   2.448632   1.387314   0.000000
    11  C    3.772531   2.479297   2.861710   2.432325   1.407316
    12  C    4.921188   3.779101   4.292857   3.752534   2.485108
    13  C    5.115690   4.276316   5.132170   4.875192   3.733534
    14  C    4.276222   3.812235   4.978306   5.124383   4.277832
    15  C    2.837878   2.494915   3.797510   4.247453   3.751282
    16  C    2.459254   1.435916   2.480862   2.812342   2.441573
    17  C    6.551774   6.289909   7.488708   7.578223   6.595699
    18  C    2.957593   2.522876   1.465560   2.499020   3.783430
    19  C    7.591764   7.482590   8.737215   8.895221   7.938340
    20  C    4.239598   3.747648   2.497267   3.005993   4.379757
    21  O    5.066196   4.858742   3.733105   4.337245   5.719071
    22  N    8.942588   8.719199   9.903743   9.918168   8.845770
    23  O    9.856215   9.747096  10.980450  11.064018  10.026412
    24  O    9.227081   8.813771   9.883036   9.722995   8.545631
    25  H    5.827268   6.182316   7.589040   8.155781   7.567131
    26  H    4.071098   4.909253   6.320293   7.246300   7.075696
    27  H    2.136141   3.440056   4.644925   5.864130   6.154447
    28  H    1.090192   2.187770   2.746662   4.144894   4.909717
    29  H    4.666444   3.428192   2.164131   1.092227   2.139474
    30  H    5.353494   3.917840   3.433335   2.152264   1.093625
    31  H    5.891808   4.651514   4.918447   4.093917   2.711773
    32  H    6.183190   5.365486   6.188233   5.831120   4.599213
    33  H    6.989293   6.508151   7.571478   7.456371   6.335055
    34  H    2.695392   2.787332   2.211821   3.441993   4.631174
    35  H    7.709058   7.800098   9.130175   9.439113   8.592063
    36  H    4.887971   4.140761   2.787965   2.793272   4.087744
    37  H    5.920196   5.616766   4.408412   4.798321   6.159365
                   11         12         13         14         15
    11  C    0.000000
    12  C    1.431306   0.000000
    13  C    2.442949   1.365853   0.000000
    14  C    2.870589   2.447346   1.437806   0.000000
    15  C    2.471937   2.824321   2.461849   1.438445   0.000000
    16  C    1.427950   2.462501   2.840483   2.497475   1.435203
    17  C    5.215435   4.326323   2.960516   2.510709   3.817574
    18  C    4.327017   5.758236   6.571703   6.305103   5.017667
    19  C    6.552495   5.668814   4.303207   3.786322   4.988015
    20  C    5.209419   6.617711   7.567758   7.443770   6.216826
    21  O    6.524474   7.942797   8.853472   8.639879   7.348635
    22  N    7.510083   6.439593   5.115680   4.928418   6.244594
    23  O    8.673630   7.643244   6.306510   6.006802   7.254294
    24  O    7.290786   6.071198   4.847839   5.013514   6.423913
    25  H    6.189046   5.874750   4.682134   3.439170   3.908564
    26  H    5.891522   6.160107   5.366683   3.929853   3.439266
    27  H    5.348388   6.167433   5.896353   4.655107   3.448017
    28  H    4.659139   5.900039   6.181612   5.366095   3.927868
    29  H    3.411367   4.622080   5.833328   6.183869   5.338565
    30  H    2.161942   2.714073   4.075048   4.910130   4.630283
    31  H    2.176179   1.093635   2.132944   3.437568   3.917924
    32  H    3.419330   2.115460   1.089516   2.194242   3.455478
    33  H    5.029313   3.908927   2.602120   2.728460   4.159309
    34  H    4.958834   6.366820   7.022007   6.554907   5.179532
    35  H    7.187158   6.453957   5.098195   4.330033   5.332840
    36  H    5.114516   6.450441   7.520761   7.585730   6.483689
    37  H    7.085352   8.475570   9.459009   9.338171   8.091637
                   16         17         18         19         20
    16  C    0.000000
    17  C    5.007888   0.000000
    18  C    3.831819   8.800626   0.000000
    19  C    6.263939   1.347393  10.004796   0.000000
    20  C    4.953578   9.949633   1.347338  11.182981   0.000000
    21  O    6.162672  11.134797   2.357363  12.333793   1.353668
    22  N    7.424132   2.429410  11.228111   1.453661  12.366800
    23  O    8.500971   3.499465  12.267682   2.272382  13.433567
    24  O    7.439827   2.737949  11.271210   2.317127  12.344289
    25  H    5.343488   2.700895   8.613416   2.671481   9.873805
    26  H    4.635112   4.638778   7.024831   5.025981   8.300447
    27  H    3.920543   6.336257   4.961693   7.068251   6.196326
    28  H    3.449518   7.619370   2.607500   8.626780   3.795927
    29  H    3.903683   8.610848   2.706155   9.937806   2.724741
    30  H    3.431856   7.030268   4.650906   8.375922   5.039980
    31  H    3.445900   4.967944   6.358665   6.271218   7.067391
    32  H    3.929776   2.631267   7.637404   3.878725   8.601344
    33  H    5.127208   1.091144   8.958289   2.047074  10.035784
    34  H    4.201217   8.988674   1.092795  10.120628   2.072802
    35  H    6.703984   2.193969  10.310922   1.087813  11.530640
    36  H    5.136249  10.076308   2.142555  11.350936   1.096820
    37  H    6.855296  11.838473   3.149488  13.060288   1.911722
                   21         22         23         24         25
    21  O    0.000000
    22  N   13.561529   0.000000
    23  O   14.598146   1.226037   0.000000
    24  O   13.592570   1.225009   2.171553   0.000000
    25  H   10.855472   4.084090   4.553177   4.967986   0.000000
    26  H    9.089444   6.473410   7.007940   7.233300   2.455517
    27  H    6.811653   8.511921   9.217849   9.068598   4.762435
    28  H    4.377498   9.995842  10.882162  10.306908   6.731143
    29  H    3.976534  10.920685  12.082050  10.668405   9.246782
    30  H    6.359109   9.140411  10.350130   8.698384   8.307987
    31  H    8.410998   6.843463   8.067901   6.289458   6.805306
    32  H    9.901433   4.419898   5.641988   3.961861   4.889103
    33  H   11.280268   2.532320   3.744902   2.313151   3.784425
    34  H    2.539692  11.411328  12.391214  11.560632   8.490490
    35  H   12.615882   2.110863   2.386443   3.217258   2.169463
    36  H    2.085876  12.458129  13.565710  12.338022  10.258951
    37  H    0.964666  14.255867  15.314041  14.237696  11.662657
                   26         27         28         29         30
    26  H    0.000000
    27  H    2.470655   0.000000
    28  H    4.751291   2.442476   0.000000
    29  H    8.299538   6.793591   4.860009   0.000000
    30  H    8.029318   7.229714   5.987950   2.458390   0.000000
    31  H    7.236651   7.240310   6.821530   4.774259   2.480385
    32  H    6.010688   6.830870   7.255938   6.733200   4.750034
    33  H    5.588836   7.064867   8.076872   8.432123   6.608181
    34  H    6.678372   4.435134   2.025794   3.733736   5.565168
    35  H    4.624962   6.883987   8.689474  10.507824   9.125370
    36  H    8.875373   6.923616   4.615888   2.239072   4.558744
    37  H    9.946226   7.692515   5.267718   4.266394   6.679646
                   31         32         33         34         35
    31  H    0.000000
    32  H    2.431295   0.000000
    33  H    4.342439   1.911356   0.000000
    34  H    7.073154   8.105774   9.263350   0.000000
    35  H    7.152551   4.821862   3.080086  10.321269   0.000000
    36  H    6.752886   8.500056  10.054905   3.074402  11.783789
    37  H    8.855643  10.482497  11.931808   3.476256  13.379274
                   36         37
    36  H    0.000000
    37  H    2.171203   0.000000
 Stoichiometry    C20H13NO3
 Framework group  C1[X(C20H13NO3)]
 Deg. of freedom   105
 Full point group                 C1      NOp   1
 Largest Abelian subgroup         C1      NOp   1
 Largest concise Abelian subgroup C1      NOp   1
                         Standard orientation:                         
 ---------------------------------------------------------------------
 Center     Atomic      Atomic             Coordinates (Angstroms)
 Number     Number       Type             X           Y           Z
 ---------------------------------------------------------------------
      1          6           0        2.461705    0.513118    0.002577
      2          6           0        2.378305    1.923822    0.002426
      3          6           0        1.164199    2.585126   -0.013682
      4          6           0       -0.049165    1.865400   -0.033125
      5          6           0       -1.317940    2.528041   -0.041274
      6          6           0       -2.488825    1.824073   -0.061819
      7          6           0       -2.507552    0.387792   -0.084252
      8          6           0       -3.725860   -0.359968   -0.113606
      9          6           0       -3.642896   -1.768750   -0.118176
     10          6           0       -2.426884   -2.435348   -0.078147
     11          6           0       -1.211828   -1.725743   -0.052868
     12          6           0        0.057315   -2.387142   -0.031306
     13          6           0        1.230536   -1.687971   -0.015022
     14          6           0        1.250293   -0.250301   -0.016613
     15          6           0       -0.013547    0.436283   -0.037476
     16          6           0       -1.246342   -0.298229   -0.060165
     17          6           0        3.758598   -0.147802    0.022868
     18          6           0       -5.028304    0.310793   -0.153434
     19          6           0        4.973866    0.433832    0.039983
     20          6           0       -6.187367   -0.219414    0.283340
     21          8           0       -7.359228    0.448735    0.170482
     22          7           0        6.176336   -0.382744    0.059966
     23          8           0        7.236997    0.232022    0.075078
     24          8           0        6.077045   -1.603722    0.061154
     25          1           0        3.296996    2.513349    0.017085
     26          1           0        1.135353    3.677866   -0.010592
     27          1           0       -1.334608    3.621164   -0.025122
     28          1           0       -3.432276    2.370253   -0.051559
     29          1           0       -4.561961   -2.354640   -0.188972
     30          1           0       -2.404335   -3.528685   -0.089205
     31          1           0        0.074840   -3.480634   -0.028455
     32          1           0        2.167650   -2.243503    0.000715
     33          1           0        3.793210   -1.238394    0.025055
     34          1           0       -5.089705    1.322827   -0.561134
     35          1           0        5.212520    1.495142    0.041407
     36          1           0       -6.234868   -1.206883    0.758381
     37          1           0       -8.065519   -0.050607    0.597556
 ---------------------------------------------------------------------
 Rotational constants (GHZ):           0.7461396           0.0993129           0.0877659
 Leave Link  202 at Fri Aug 15 18:36:20 2025, MaxMem=  1342177280 cpu:               0.1 elap:               0.0
 (Enter /opt/bwhpc/common/chem/gaussian/g16.C.01/x86_64-Intel-avx2-source/g16/l301.exe)
 Standard basis: CC-pVDZ (5D, 7F)
 Ernie: Thresh=  0.10000D-02 Tol=  0.10000D-05 Strict=F.
 Ernie:  48 primitive shells out of 593 were deleted.
 There are   425 symmetry adapted cartesian basis functions of A   symmetry.
 There are   401 symmetry adapted basis functions of A   symmetry.
   401 basis functions,   883 primitive gaussians,   425 cartesian basis functions
    82 alpha electrons       82 beta electrons
       nuclear repulsion energy      1791.0650482067 Hartrees.
 IExCor=    0 DFT=F Ex=HF Corr=None ExCW=0 ScaHFX=  1.000000
 ScaDFX=  1.000000  1.000000  1.000000  1.000000 ScalE2=  1.000000  1.000000
 IRadAn=      5 IRanWt=     -1 IRanGd=            0 ICorTp=0 IEmpDi=  4
 NAtoms=   37 NActive=   37 NUniq=   37 SFac= 1.00D+00 NAtFMM=   60 NAOKFM=F Big=F
 Integral buffers will be    131072 words long.
 Raffenetti 1 integral format.
 Two-electron integral symmetry is turned on.
 Leave Link  301 at Fri Aug 15 18:36:20 2025, MaxMem=  1342177280 cpu:               0.8 elap:               0.1
 (Enter /opt/bwhpc/common/chem/gaussian/g16.C.01/x86_64-Intel-avx2-source/g16/l302.exe)
 NPDir=0 NMtPBC=     1 NCelOv=     1 NCel=       1 NClECP=     1 NCelD=      1
         NCelK=      1 NCelE2=     1 NClLst=     1 CellRange=     0.0.
 One-electron integrals computed using PRISM.
 One-electron integral symmetry used in STVInt
 NBasis=   401 RedAO= T EigKep=  6.97D-05  NBF=   401
 NBsUse=   401 1.00D-06 EigRej= -1.00D+00 NBFU=   401
 Leave Link  302 at Fri Aug 15 18:36:21 2025, MaxMem=  1342177280 cpu:               4.9 elap:               0.3
 (Enter /opt/bwhpc/common/chem/gaussian/g16.C.01/x86_64-Intel-avx2-source/g16/l303.exe)
 DipDrv:  MaxL=1.
 Leave Link  303 at Fri Aug 15 18:36:21 2025, MaxMem=  1342177280 cpu:               1.1 elap:               0.1
 (Enter /opt/bwhpc/common/chem/gaussian/g16.C.01/x86_64-Intel-avx2-source/g16/l401.exe)
 ExpMin= 1.22D-01 ExpMax= 1.17D+04 ExpMxC= 4.01D+02 IAcc=3 IRadAn=         5 AccDes= 0.00D+00
 Harris functional with IExCor=  205 and IRadAn=       5 diagonalized for initial guess.
 HarFok:  IExCor=  205 AccDes= 0.00D+00 IRadAn=         5 IDoV= 1 UseB2=F ITyADJ=14
 ICtDFT=  3500011 ScaDFX=  1.000000  1.000000  1.000000  1.000000
 FoFCou: FMM=F IPFlag=           0 FMFlag=      100000 FMFlg1=           0
         NFxFlg=           0 DoJE=T BraDBF=F KetDBF=T FulRan=T
         wScrn=  0.000000 ICntrl=       500 IOpCl=  0 I1Cent=   200000004 NGrid=           0
         NMat0=    1 NMatS0=      1 NMatT0=    0 NMatD0=    1 NMtDS0=    0 NMtDT0=    0
 Petite list used in FoFCou.
 Harris En= -1045.00158481512    
 JPrj=0 DoOrth=F DoCkMO=F.
 Leave Link  401 at Fri Aug 15 18:36:22 2025, MaxMem=  1342177280 cpu:              21.2 elap:               1.4
 (Enter /opt/bwhpc/common/chem/gaussian/g16.C.01/x86_64-Intel-avx2-source/g16/l502.exe)
 Integral symmetry usage will be decided dynamically.
 Closed shell SCF:
 Using DIIS extrapolation, IDIIS=  1040.
 NGot=  1342177280 LenX=  1341804006 LenY=  1341622940
 Requested convergence on RMS density matrix=1.00D-08 within 128 cycles.
 Requested convergence on MAX density matrix=1.00D-06.
 Requested convergence on             energy=1.00D-06.
 No special actions if energy rises.
 Fock matrices will be formed incrementally for  20 cycles.
 Integral accuracy reduced to 1.0D-05 until final iterations.

 Cycle   1  Pass 0  IDiag  1:
 FoFJK:  IHMeth= 1 ICntrl=       0 DoSepK=F KAlg= 0 I1Cent=           0 FoldK=F
 IRaf= 760000000 NMat=       1 IRICut=       1 DoRegI=T DoRafI=F ISym2E= 0 IDoP0=0 IntGTp=1.
 FoFCou: FMM=F IPFlag=           0 FMFlag=      100000 FMFlg1=           0
         NFxFlg=           0 DoJE=F BraDBF=F KetDBF=F FulRan=T
         wScrn=  0.000000 ICntrl=         0 IOpCl=  0 I1Cent=           0 NGrid=           0
         NMat0=    1 NMatS0=      1 NMatT0=    0 NMatD0=    1 NMtDS0=    0 NMtDT0=    0
 Symmetry not used in FoFCou.
 E= -1043.15773422152    
 DIIS: error= 5.30D-02 at cycle   1 NSaved=   1.
 NSaved= 1 IEnMin= 1 EnMin= -1043.15773422152     IErMin= 1 ErrMin= 5.30D-02
 ErrMax= 5.30D-02  0.00D+00 EMaxC= 1.00D-01 BMatC= 9.61D-01 BMatP= 9.61D-01
 IDIUse=3 WtCom= 4.70D-01 WtEn= 5.30D-01
 Coeff-Com:  0.100D+01
 Coeff-En:   0.100D+01
 Coeff:      0.100D+01
 Gap=     0.251 Goal=   None    Shift=    0.000
 GapD=    0.251 DampG=1.000 DampE=0.500 DampFc=0.5000 IDamp=-1.
 Damping current iteration by 5.00D-01
 RMSDP=8.13D-03 MaxDP=2.84D-01              OVMax= 1.46D-01

 Cycle   2  Pass 0  IDiag  1:
 RMSU=  3.49D-03    CP:  8.90D-01
 E= -1043.55330037326     Delta-E=       -0.395566151742 Rises=F Damp=T
 DIIS: error= 1.96D-02 at cycle   2 NSaved=   2.
 NSaved= 2 IEnMin= 2 EnMin= -1043.55330037326     IErMin= 2 ErrMin= 1.96D-02
 ErrMax= 1.96D-02  0.00D+00 EMaxC= 1.00D-01 BMatC= 1.86D-01 BMatP= 9.61D-01
 IDIUse=3 WtCom= 8.04D-01 WtEn= 1.96D-01
 Coeff-Com: -0.545D+00 0.154D+01
 Coeff-En:   0.000D+00 0.100D+01
 Coeff:     -0.438D+00 0.144D+01
 Gap=     0.314 Goal=   None    Shift=    0.000
 RMSDP=3.98D-03 MaxDP=1.42D-01 DE=-3.96D-01 OVMax= 1.02D-01

 Cycle   3  Pass 0  IDiag  1:
 RMSU=  1.01D-03    CP:  7.81D-01  1.93D+00
 E= -1043.91452827036     Delta-E=       -0.361227897097 Rises=F Damp=F
 DIIS: error= 1.36D-02 at cycle   3 NSaved=   3.
 NSaved= 3 IEnMin= 3 EnMin= -1043.91452827036     IErMin= 3 ErrMin= 1.36D-02
 ErrMax= 1.36D-02  0.00D+00 EMaxC= 1.00D-01 BMatC= 1.30D-02 BMatP= 1.86D-01
 IDIUse=3 WtCom= 8.64D-01 WtEn= 1.36D-01
 Coeff-Com: -0.190D+00 0.368D+00 0.822D+00
 Coeff-En:   0.000D+00 0.000D+00 0.100D+01
 Coeff:     -0.164D+00 0.318D+00 0.846D+00
 Gap=     0.265 Goal=   None    Shift=    0.000
 RMSDP=3.15D-04 MaxDP=2.04D-02 DE=-3.61D-01 OVMax= 2.80D-02

 Cycle   4  Pass 0  IDiag  1:
 RMSU=  2.81D-04    CP:  7.78D-01  1.97D+00  9.55D-01
 E= -1043.92476217601     Delta-E=       -0.010233905653 Rises=F Damp=F
 DIIS: error= 2.81D-03 at cycle   4 NSaved=   4.
 NSaved= 4 IEnMin= 4 EnMin= -1043.92476217601     IErMin= 4 ErrMin= 2.81D-03
 ErrMax= 2.81D-03  0.00D+00 EMaxC= 1.00D-01 BMatC= 1.40D-03 BMatP= 1.30D-02
 IDIUse=3 WtCom= 9.72D-01 WtEn= 2.81D-02
 Coeff-Com: -0.706D-02-0.128D-01 0.240D+00 0.780D+00
 Coeff-En:   0.000D+00 0.000D+00 0.000D+00 0.100D+01
 Coeff:     -0.686D-02-0.124D-01 0.233D+00 0.786D+00
 Gap=     0.267 Goal=   None    Shift=    0.000
 RMSDP=1.23D-04 MaxDP=6.76D-03 DE=-1.02D-02 OVMax= 1.04D-02

 Cycle   5  Pass 0  IDiag  1:
 RMSU=  8.88D-05    CP:  7.76D-01  1.98D+00  1.02D+00  9.68D-01
 E= -1043.92630101238     Delta-E=       -0.001538836368 Rises=F Damp=F
 DIIS: error= 5.51D-04 at cycle   5 NSaved=   5.
 NSaved= 5 IEnMin= 5 EnMin= -1043.92630101238     IErMin= 5 ErrMin= 5.51D-04
 ErrMax= 5.51D-04  0.00D+00 EMaxC= 1.00D-01 BMatC= 7.64D-05 BMatP= 1.40D-03
 IDIUse=3 WtCom= 9.94D-01 WtEn= 5.51D-03
 Coeff-Com:  0.114D-01-0.200D-01-0.787D-01-0.508D-01 0.114D+01
 Coeff-En:   0.000D+00 0.000D+00 0.000D+00 0.000D+00 0.100D+01
 Coeff:      0.113D-01-0.199D-01-0.783D-01-0.506D-01 0.114D+01
 Gap=     0.270 Goal=   None    Shift=    0.000
 RMSDP=5.33D-05 MaxDP=2.17D-03 DE=-1.54D-03 OVMax= 6.71D-03

 Cycle   6  Pass 0  IDiag  1:
 RMSU=  2.82D-05    CP:  7.76D-01  1.98D+00  1.04D+00  1.07D+00  1.30D+00
 E= -1043.92654151219     Delta-E=       -0.000240499813 Rises=F Damp=F
 DIIS: error= 1.70D-04 at cycle   6 NSaved=   6.
 NSaved= 6 IEnMin= 6 EnMin= -1043.92654151219     IErMin= 6 ErrMin= 1.70D-04
 ErrMax= 1.70D-04  0.00D+00 EMaxC= 1.00D-01 BMatC= 1.57D-05 BMatP= 7.64D-05
 IDIUse=3 WtCom= 9.98D-01 WtEn= 1.70D-03
 Coeff-Com:  0.346D-02-0.320D-02-0.475D-01-0.107D+00 0.243D+00 0.912D+00
 Coeff-En:   0.000D+00 0.000D+00 0.000D+00 0.000D+00 0.000D+00 0.100D+01
 Coeff:      0.345D-02-0.319D-02-0.474D-01-0.107D+00 0.242D+00 0.912D+00
 Gap=     0.271 Goal=   None    Shift=    0.000
 RMSDP=2.20D-05 MaxDP=8.52D-04 DE=-2.40D-04 OVMax= 3.21D-03

 Cycle   7  Pass 0  IDiag  1:
 RMSU=  1.34D-05    CP:  7.76D-01  1.98D+00  1.05D+00  1.10D+00  1.45D+00
                    CP:  1.22D+00
 E= -1043.92658735853     Delta-E=       -0.000045846341 Rises=F Damp=F
 DIIS: error= 8.49D-05 at cycle   7 NSaved=   7.
 NSaved= 7 IEnMin= 7 EnMin= -1043.92658735853     IErMin= 7 ErrMin= 8.49D-05
 ErrMax= 8.49D-05  0.00D+00 EMaxC= 1.00D-01 BMatC= 3.22D-06 BMatP= 1.57D-05
 IDIUse=1 WtCom= 1.00D+00 WtEn= 0.00D+00
 Coeff-Com: -0.130D-02 0.270D-02 0.683D-02-0.595D-02-0.168D+00 0.162D+00
 Coeff-Com:  0.100D+01
 Coeff:     -0.130D-02 0.270D-02 0.683D-02-0.595D-02-0.168D+00 0.162D+00
 Coeff:      0.100D+01
 Gap=     0.272 Goal=   None    Shift=    0.000
 RMSDP=1.07D-05 MaxDP=5.31D-04 DE=-4.58D-05 OVMax= 1.60D-03

 Cycle   8  Pass 0  IDiag  1:
 RMSU=  5.58D-06    CP:  7.76D-01  1.98D+00  1.05D+00  1.11D+00  1.49D+00
                    CP:  1.48D+00  1.20D+00
 E= -1043.92659522272     Delta-E=       -0.000007864187 Rises=F Damp=F
 DIIS: error= 3.14D-05 at cycle   8 NSaved=   8.
 NSaved= 8 IEnMin= 8 EnMin= -1043.92659522272     IErMin= 8 ErrMin= 3.14D-05
 ErrMax= 3.14D-05  0.00D+00 EMaxC= 1.00D-01 BMatC= 6.72D-07 BMatP= 3.22D-06
 IDIUse=1 WtCom= 1.00D+00 WtEn= 0.00D+00
 Coeff-Com: -0.122D-02 0.162D-02 0.131D-01 0.229D-01-0.100D+00-0.152D+00
 Coeff-Com:  0.218D+00 0.998D+00
 Coeff:     -0.122D-02 0.162D-02 0.131D-01 0.229D-01-0.100D+00-0.152D+00
 Coeff:      0.218D+00 0.998D+00
 Gap=     0.272 Goal=   None    Shift=    0.000
 RMSDP=5.88D-06 MaxDP=2.69D-04 DE=-7.86D-06 OVMax= 8.04D-04

 Initial convergence to 1.0D-05 achieved.  Increase integral accuracy.
 Cycle   9  Pass 1  IDiag  1:
 E= -1043.92656260301     Delta-E=        0.000032619709 Rises=F Damp=F
 DIIS: error= 2.63D-04 at cycle   1 NSaved=   1.
 NSaved= 1 IEnMin= 1 EnMin= -1043.92656260301     IErMin= 1 ErrMin= 2.63D-04
 ErrMax= 2.63D-04  0.00D+00 EMaxC= 1.00D-01 BMatC= 1.02D-05 BMatP= 1.02D-05
 IDIUse=3 WtCom= 9.97D-01 WtEn= 2.63D-03
 Coeff-Com:  0.100D+01
 Coeff-En:   0.100D+01
 Coeff:      0.100D+01
 Gap=     0.272 Goal=   None    Shift=    0.000
 RMSDP=5.88D-06 MaxDP=2.69D-04 DE= 3.26D-05 OVMax= 3.10D-04

 Cycle  10  Pass 1  IDiag  1:
 RMSU=  2.49D-04    CP:  1.00D+00
 E= -1043.92656948511     Delta-E=       -0.000006882096 Rises=F Damp=F
 DIIS: error= 1.16D-05 at cycle   2 NSaved=   2.
 NSaved= 2 IEnMin= 2 EnMin= -1043.92656948511     IErMin= 2 ErrMin= 1.16D-05
 ErrMax= 1.16D-05  0.00D+00 EMaxC= 1.00D-01 BMatC= 6.60D-08 BMatP= 1.02D-05
 IDIUse=1 WtCom= 1.00D+00 WtEn= 0.00D+00
 Coeff-Com: -0.255D-01 0.103D+01
 Coeff:     -0.255D-01 0.103D+01
 Gap=     0.272 Goal=   None    Shift=    0.000
 RMSDP=1.03D-05 MaxDP=4.99D-04 DE=-6.88D-06 OVMax= 2.28D-04

 Cycle  11  Pass 1  IDiag  1:
 RMSU=  2.89D-06    CP:  1.00D+00  1.04D+00
 E= -1043.92656969755     Delta-E=       -0.000000212445 Rises=F Damp=F
 DIIS: error= 1.16D-05 at cycle   3 NSaved=   3.
 NSaved= 3 IEnMin= 3 EnMin= -1043.92656969755     IErMin= 2 ErrMin= 1.16D-05
 ErrMax= 1.16D-05  0.00D+00 EMaxC= 1.00D-01 BMatC= 3.69D-08 BMatP= 6.60D-08
 IDIUse=1 WtCom= 1.00D+00 WtEn= 0.00D+00
 Coeff-Com: -0.126D-01 0.368D+00 0.645D+00
 Coeff:     -0.126D-01 0.368D+00 0.645D+00
 Gap=     0.272 Goal=   None    Shift=    0.000
 RMSDP=6.63D-07 MaxDP=2.69D-05 DE=-2.12D-07 OVMax= 9.59D-05

 Cycle  12  Pass 1  IDiag  1:
 RMSU=  5.84D-07    CP:  1.00D+00  1.04D+00  1.09D+00
 E= -1043.92656977801     Delta-E=       -0.000000080456 Rises=F Damp=F
 DIIS: error= 7.16D-06 at cycle   4 NSaved=   4.
 NSaved= 4 IEnMin= 4 EnMin= -1043.92656977801     IErMin= 4 ErrMin= 7.16D-06
 ErrMax= 7.16D-06  0.00D+00 EMaxC= 1.00D-01 BMatC= 1.33D-08 BMatP= 3.69D-08
 IDIUse=1 WtCom= 1.00D+00 WtEn= 0.00D+00
 Coeff-Com:  0.199D-01-0.746D+00-0.344D+00 0.207D+01
 Coeff:      0.199D-01-0.746D+00-0.344D+00 0.207D+01
 Gap=     0.272 Goal=   None    Shift=    0.000
 RMSDP=1.62D-06 MaxDP=7.59D-05 DE=-8.05D-08 OVMax= 3.03D-04

 Cycle  13  Pass 1  IDiag  1:
 RMSU=  8.95D-07    CP:  1.00D+00  1.04D+00  1.37D+00  2.79D+00
 E= -1043.92656990424     Delta-E=       -0.000000126231 Rises=F Damp=F
 DIIS: error= 2.62D-06 at cycle   5 NSaved=   5.
 NSaved= 5 IEnMin= 5 EnMin= -1043.92656990424     IErMin= 5 ErrMin= 2.62D-06
 ErrMax= 2.62D-06  0.00D+00 EMaxC= 1.00D-01 BMatC= 1.94D-09 BMatP= 1.33D-08
 IDIUse=1 WtCom= 1.00D+00 WtEn= 0.00D+00
 Coeff-Com:  0.508D-02-0.169D+00-0.200D+00 0.270D+00 0.109D+01
 Coeff:      0.508D-02-0.169D+00-0.200D+00 0.270D+00 0.109D+01
 Gap=     0.272 Goal=   None    Shift=    0.000
 RMSDP=5.97D-07 MaxDP=2.59D-05 DE=-1.26D-07 OVMax= 1.16D-04

 Cycle  14  Pass 1  IDiag  1:
 RMSU=  3.35D-07    CP:  1.00D+00  1.04D+00  1.41D+00  3.00D+00  1.40D+00
 E= -1043.92656991934     Delta-E=       -0.000000015103 Rises=F Damp=F
 DIIS: error= 7.24D-07 at cycle   6 NSaved=   6.
 NSaved= 6 IEnMin= 6 EnMin= -1043.92656991934     IErMin= 6 ErrMin= 7.24D-07
 ErrMax= 7.24D-07  0.00D+00 EMaxC= 1.00D-01 BMatC= 3.83D-10 BMatP= 1.94D-09
 IDIUse=1 WtCom= 1.00D+00 WtEn= 0.00D+00
 Coeff-Com: -0.302D-02 0.117D+00 0.276D-01-0.351D+00 0.219D+00 0.991D+00
 Coeff:     -0.302D-02 0.117D+00 0.276D-01-0.351D+00 0.219D+00 0.991D+00
 Gap=     0.273 Goal=   None    Shift=    0.000
 RMSDP=2.05D-07 MaxDP=7.60D-06 DE=-1.51D-08 OVMax= 3.69D-05

 Cycle  15  Pass 1  IDiag  1:
 RMSU=  7.60D-08    CP:  1.00D+00  1.04D+00  1.41D+00  3.00D+00  1.53D+00
                    CP:  1.38D+00
 E= -1043.92656992127     Delta-E=       -0.000000001923 Rises=F Damp=F
 DIIS: error= 3.65D-07 at cycle   7 NSaved=   7.
 NSaved= 7 IEnMin= 7 EnMin= -1043.92656992127     IErMin= 7 ErrMin= 3.65D-07
 ErrMax= 3.65D-07  0.00D+00 EMaxC= 1.00D-01 BMatC= 8.13D-11 BMatP= 3.83D-10
 IDIUse=1 WtCom= 1.00D+00 WtEn= 0.00D+00
 Coeff-Com:  0.771D-04-0.934D-02 0.350D-01 0.817D-01-0.318D+00-0.501D+00
 Coeff-Com:  0.171D+01
 Coeff:      0.771D-04-0.934D-02 0.350D-01 0.817D-01-0.318D+00-0.501D+00
 Coeff:      0.171D+01
 Gap=     0.273 Goal=   None    Shift=    0.000
 RMSDP=1.17D-07 MaxDP=6.40D-06 DE=-1.92D-09 OVMax= 2.23D-05

 Cycle  16  Pass 1  IDiag  1:
 RMSU=  5.45D-08    CP:  1.00D+00  1.04D+00  1.41D+00  3.00D+00  1.57D+00
                    CP:  1.56D+00  1.95D+00
 E= -1043.92656992203     Delta-E=       -0.000000000764 Rises=F Damp=F
 DIIS: error= 2.86D-07 at cycle   8 NSaved=   8.
 NSaved= 8 IEnMin= 8 EnMin= -1043.92656992203     IErMin= 8 ErrMin= 2.86D-07
 ErrMax= 2.86D-07  0.00D+00 EMaxC= 1.00D-01 BMatC= 1.51D-11 BMatP= 8.13D-11
 IDIUse=1 WtCom= 1.00D+00 WtEn= 0.00D+00
 Coeff-Com:  0.489D-03-0.210D-01 0.848D-02 0.783D-01-0.139D+00-0.325D+00
 Coeff-Com:  0.594D+00 0.803D+00
 Coeff:      0.489D-03-0.210D-01 0.848D-02 0.783D-01-0.139D+00-0.325D+00
 Coeff:      0.594D+00 0.803D+00
 Gap=     0.273 Goal=   None    Shift=    0.000
 RMSDP=3.08D-08 MaxDP=1.51D-06 DE=-7.64D-10 OVMax= 5.44D-06

 Cycle  17  Pass 1  IDiag  1:
 RMSU=  1.22D-08    CP:  1.00D+00  1.04D+00  1.42D+00  3.00D+00  1.58D+00
                    CP:  1.60D+00  2.18D+00  1.22D+00
 E= -1043.92656992205     Delta-E=       -0.000000000018 Rises=F Damp=F
 DIIS: error= 5.66D-08 at cycle   9 NSaved=   9.
 NSaved= 9 IEnMin= 9 EnMin= -1043.92656992205     IErMin= 9 ErrMin= 5.66D-08
 ErrMax= 5.66D-08  0.00D+00 EMaxC= 1.00D-01 BMatC= 2.11D-12 BMatP= 1.51D-11
 IDIUse=1 WtCom= 1.00D+00 WtEn= 0.00D+00
 Coeff-Com: -0.754D-04 0.428D-02-0.552D-02-0.262D-01 0.730D-01 0.127D+00
 Coeff-Com: -0.381D+00-0.455D-01 0.125D+01
 Coeff:     -0.754D-04 0.428D-02-0.552D-02-0.262D-01 0.730D-01 0.127D+00
 Coeff:     -0.381D+00-0.455D-01 0.125D+01
 Gap=     0.272 Goal=   None    Shift=    0.000
 RMSDP=1.43D-08 MaxDP=7.37D-07 DE=-1.82D-11 OVMax= 2.19D-06

 Cycle  18  Pass 1  IDiag  1:
 RMSU=  7.94D-09    CP:  1.00D+00  1.04D+00  1.42D+00  3.00D+00  1.59D+00
                    CP:  1.60D+00  2.24D+00  1.37D+00  1.45D+00
 E= -1043.92656992205     Delta-E=       -0.000000000000 Rises=F Damp=F
 DIIS: error= 1.99D-08 at cycle  10 NSaved=  10.
 NSaved=10 IEnMin=10 EnMin= -1043.92656992205     IErMin=10 ErrMin= 1.99D-08
 ErrMax= 1.99D-08  0.00D+00 EMaxC= 1.00D-01 BMatC= 3.57D-13 BMatP= 2.11D-12
 IDIUse=1 WtCom= 1.00D+00 WtEn= 0.00D+00
 Coeff-Com: -0.104D-03 0.465D-02-0.206D-02-0.199D-01 0.397D-01 0.841D-01
 Coeff-Com: -0.190D+00-0.154D+00 0.255D+00 0.982D+00
 Coeff:     -0.104D-03 0.465D-02-0.206D-02-0.199D-01 0.397D-01 0.841D-01
 Coeff:     -0.190D+00-0.154D+00 0.255D+00 0.982D+00
 Gap=     0.272 Goal=   None    Shift=    0.000
 RMSDP=5.08D-09 MaxDP=2.22D-07 DE=-4.55D-13 OVMax= 6.56D-07

 SCF Done:  E(RHF) =  -1043.92656992     A.U. after   18 cycles
            NFock= 18  Conv=0.51D-08     -V/T= 2.0012
 KE= 1.042699372487D+03 PE=-6.021594542722D+03 EE= 2.143903552107D+03
 Leave Link  502 at Fri Aug 15 18:37:06 2025, MaxMem=  1342177280 cpu:             694.5 elap:              43.6
 (Enter /opt/bwhpc/common/chem/gaussian/g16.C.01/x86_64-Intel-avx2-source/g16/l801.exe)
 ExpMin= 1.22D-01 ExpMax= 1.17D+04 ExpMxC= 4.01D+02 IAcc=3 IRadAn=         5 AccDes= 0.00D+00
 HarFok:  IExCor=  205 AccDes= 0.00D+00 IRadAn=         5 IDoV=-2 UseB2=F ITyADJ=14
 ICtDFT= 12500011 ScaDFX=  1.000000  1.000000  1.000000  1.000000
 GSVD:  LWork=        -768 too small for GESVD, short by        3240 words or        3240 for optimal perf.
 Largest valence mixing into a core orbital is  1.07D-04
 Largest core mixing into a valence orbital is  6.18D-05
 Range of M.O.s used for correlation:    25   401
 NBasis=   401 NAE=    82 NBE=    82 NFC=    24 NFV=     0
 NROrb=    377 NOA=    58 NOB=    58 NVA=   319 NVB=   319

 **** Warning!!: The largest alpha MO coefficient is  0.23091360D+02

 Leave Link  801 at Fri Aug 15 18:37:06 2025, MaxMem=  1342177280 cpu:               2.1 elap:               0.2
 (Enter /opt/bwhpc/common/chem/gaussian/g16.C.01/x86_64-Intel-avx2-source/g16/l906.exe)
 Frozen-core derivative calculation, NFC=  24 NFV=   0.
 FulOut=F Deriv=T AODrv=F NAtomX=    37
   MMem=           0  MDisk=          58 MDiskD=          58
  W3Min=    13974850 MinDsk=    36481000 NBas6D=         425
 NBas2D=       91068    NTT=       90525    LW2=     3300000
    MDV=  1339895196 MDiskM=       43722 NBas2p=       69325
 Disk-based method using ON**2 memory for 58 occupieds at a time.
 Permanent disk used for amplitudes=   852685405 words.
 Estimated scratch disk usage=  6550107495 words.
 IMap=   1   2   3   4   5   6   7   8   9  10  11  12  13  14  15  16  17  18  19  20
 IMap=  21  22  23  24  25  26  27  28  29  30  31  32  33  34  35  36  37  38  39  40
 IMap=  41  42  43  44  45  46  47  48  49  50  51  52  53  54  55  56  57  58  59  60
 IMap=  61  62  63  64  65  66  67  68  69  70  71  72  73  74  75  76  77  78  79  80
 IMap=  81  82
 Actual    scratch disk usage=  5963268967 words.
 JobTyp=1 Pass  1:  I=  25 to  82 NPSUse= 16 ParTrn=T ParDer=T DoDerP=T.
 Spin components of T(2) and E(2):
     alpha-alpha T2 =       0.1761203648D+00 E2=     -0.4607050089D+00
     alpha-beta  T2 =       0.8698186160D+00 E2=     -0.2399795944D+01
     beta-beta   T2 =       0.1761203648D+00 E2=     -0.4607050089D+00
 The integrals were generated   1 times.
 ANorm=    0.1490657354D+01
 E2 =    -0.3321205962D+01 EUMP2 =    -0.10472477758841D+04
 Leave Link  906 at Fri Aug 15 19:20:16 2025, MaxMem=  1342177280 cpu:           41315.8 elap:            2590.1
 (Enter /opt/bwhpc/common/chem/gaussian/g16.C.01/x86_64-Intel-avx2-source/g16/l1002.exe)
 Minotr:  Closed shell wavefunction.
          Frozen-core window.
          Direct CPHF calculation.
          Differentiating once with respect to electric field.
                with respect to dipole field.
          Electric field/nuclear overlap derivatives assumed to be zero.
          Requested convergence is 1.0D-08 RMS, and 1.0D-07 maximum.
          Secondary convergence is 1.0D-12 RMS, and 1.0D-12 maximum.
          NewPWx=F KeepS1=T KeepF1=T KeepIn=T MapXYZ=F SortEE=F KeepMc=T.
 Two-electron integral symmetry used by symmetrizing perturbed Fock matrices.
          MDV=    1342177280 using IRadAn=       4.
          Solving linear equations simultaneously, MaxMat=     384.
          There are     3 degrees of freedom in the 1st order CPHF.  IDoFFX=0 NUNeed=     3.
      3 vectors produced by pass  0 Test12= 8.72D-13 3.33D-08 XBig12= 2.41D+02 1.16D+01.
 AX will form     3 AO Fock derivatives at one time.
 FoFJK:  IHMeth= 1 ICntrl=       0 DoSepK=F KAlg= 0 I1Cent=           0 FoldK=F
 IRaf= 760000000 NMat=       3 IRICut=       1 DoRegI=T DoRafI=F ISym2E=-1 IDoP0=0 IntGTp=1.
 FoFCou: FMM=F IPFlag=           0 FMFlag=      100000 FMFlg1=           0
         NFxFlg=           0 DoJE=F BraDBF=F KetDBF=F FulRan=T
         wScrn=  0.000000 ICntrl=         0 IOpCl=  0 I1Cent=           0 NGrid=           0
         NMat0=    3 NMatS0=      3 NMatT0=    0 NMatD0=    3 NMtDS0=    0 NMtDT0=    0
 Petite list used in FoFCou.
      3 vectors produced by pass  1 Test12= 8.72D-13 3.33D-08 XBig12= 2.37D+01 1.49D+00.
      3 vectors produced by pass  2 Test12= 8.72D-13 3.33D-08 XBig12= 5.23D+00 6.11D-01.
      3 vectors produced by pass  3 Test12= 8.72D-13 3.33D-08 XBig12= 8.06D-01 2.15D-01.
      3 vectors produced by pass  4 Test12= 8.72D-13 3.33D-08 XBig12= 1.56D-01 9.23D-02.
      3 vectors produced by pass  5 Test12= 8.72D-13 3.33D-08 XBig12= 1.25D-02 1.57D-02.
      3 vectors produced by pass  6 Test12= 8.72D-13 3.33D-08 XBig12= 1.98D-03 8.79D-03.
      3 vectors produced by pass  7 Test12= 8.72D-13 3.33D-08 XBig12= 2.73D-04 3.22D-03.
      3 vectors produced by pass  8 Test12= 8.72D-13 3.33D-08 XBig12= 4.76D-05 1.20D-03.
      3 vectors produced by pass  9 Test12= 8.72D-13 3.33D-08 XBig12= 5.94D-06 3.25D-04.
      3 vectors produced by pass 10 Test12= 8.72D-13 3.33D-08 XBig12= 6.49D-07 1.18D-04.
      3 vectors produced by pass 11 Test12= 8.72D-13 3.33D-08 XBig12= 8.96D-08 5.78D-05.
      3 vectors produced by pass 12 Test12= 8.72D-13 3.33D-08 XBig12= 6.91D-09 1.74D-05.
      3 vectors produced by pass 13 Test12= 8.72D-13 3.33D-08 XBig12= 5.28D-10 3.95D-06.
      3 vectors produced by pass 14 Test12= 8.72D-13 3.33D-08 XBig12= 6.69D-11 1.09D-06.
      3 vectors produced by pass 15 Test12= 8.72D-13 3.33D-08 XBig12= 6.96D-12 5.33D-07.
      2 vectors produced by pass 16 Test12= 8.72D-13 3.33D-08 XBig12= 6.78D-13 1.02D-07.
      1 vectors produced by pass 17 Test12= 8.72D-13 3.33D-08 XBig12= 4.34D-14 3.50D-08.
 InvSVY:  IOpt=1 It=  1 EMax= 4.44D-15
 Solved reduced A of dimension    51 with     3 vectors.
 FullF1:  Do perturbations      1 to       3.
 Saving first derivative matrices.
 End of Minotr F.D. properties file   721 does not exist.
 End of Minotr F.D. properties file   722 does not exist.
 End of Minotr F.D. properties file   788 does not exist.
 Leave Link 1002 at Fri Aug 15 19:21:52 2025, MaxMem=  1342177280 cpu:            1522.4 elap:              95.5
 (Enter /opt/bwhpc/common/chem/gaussian/g16.C.01/x86_64-Intel-avx2-source/g16/l811.exe)
 MDV=  1342177280.
 Form MO integral derivatives with frozen-active canonical formalism.
 MOERI=1 MOERIx=0 NAtoms=    37 NAtomX=    37.
 Discarding MO integrals.
 MO basis two electron integral derivatives will not be stored on disk.
 IAlg= 3 DoFC=T DoPWx=T Debug=F.
 Frozen-core window:  NFC=  24 NFV=   0.
 Reordered first order wavefunction length =   1368481928
 In DefCFB: NBatch=  1 ICI= 82 ICA=319 LFMax= 82
            Large arrays: LIAPS=  4457977150 LIARS=   166757250 words.
 In StABat: MaxSiz= 15 MinSiz=  5 NAtomB= 29
 DoIAMN: NPSUse= 16.
 Leave Link  811 at Fri Aug 15 19:36:54 2025, MaxMem=  1342177280 cpu:           14398.5 elap:             901.9
 (Enter /opt/bwhpc/common/chem/gaussian/g16.C.01/x86_64-Intel-avx2-source/g16/l804.exe)
 Frozen-core window:  NFC=  24 NFV=   0.
 Closed-shell transformation, MDV=  1342177280 ITran=4 ISComp=1.
 Semi-Direct transformation.
 ModeAB=           4 MOrb=            82 LenV=    1338093103
 LASXX=   2271832222 LTotXX=  2271832222 LenRXX=  4565462709
 LTotAB=  2293630487 MaxLAS=  2089519572 LenRXY=           0
 NonZer=  6837294931 LenScr= 13728217600 LnRSAI=  2089519572
 LnScr1=  3146571776 LExtra=           0 Total=  23529771657
 MaxDsk=          -1 SrtSym=           T ITran=            4
 DoSDTr:  NPSUse= 16
 JobTyp=0 Pass  1:  I=   1 to  82.
 Complete sort for first half transformation.
 First half transformation complete.
 Begin second half transformation for I=  10.
 Begin second half transformation for I=  20.
 Begin second half transformation for I=  30.
 Begin second half transformation for I=  40.
 Begin second half transformation for I=  50.
 Begin second half transformation for I=  60.
 Begin second half transformation for I=  70.
 Begin second half transformation for I=  80.
 Complete sort for second half transformation.
 Second half transformation complete.
 SymMOI:  orbitals are not symmetric.
 Spin components of T(2) and E(2):
     alpha-alpha T2 =       0.1761203648D+00 E2=     -0.4607050089D+00
     alpha-beta  T2 =       0.8698186160D+00 E2=     -0.2399795944D+01
     beta-beta   T2 =       0.1761203648D+00 E2=     -0.4607050089D+00
 ANorm=    0.2108107846D+01
 E2 =    -0.3321205962D+01 EUMP2 =    -0.10472477758841D+04
 Leave Link  804 at Fri Aug 15 19:52:56 2025, MaxMem=  1342177280 cpu:           15374.1 elap:             962.8
 (Enter /opt/bwhpc/common/chem/gaussian/g16.C.01/x86_64-Intel-avx2-source/g16/l1002.exe)
 Minotr:  Closed shell wavefunction.
          Computing MP2/KS-MP2 derivatives.
          Using Z-Vector for PSCF gradient.
          Skipping F1 and S1 gradient terms here.
          Frozen-core window.
          Using MO integrals in the linear equations.
          Forming densities via direct SCF.
          Differentiating once with respect to electric field.
                with respect to dipole field.
          Electric field/nuclear overlap derivatives assumed to be zero.
          Requested convergence is 1.0D-10 RMS, and 1.0D-09 maximum.
          NewPWx=F KeepS1=T KeepF1=T KeepIn=T MapXYZ=F SortEE=F KeepMc=T.
          MDV=    1342177280 using IRadAn=       5.
          Solving linear equations separately, MaxMat=       0.
          There are     1 degrees of freedom in the 1st order CPHF.  IDoFFX=0 NUNeed=     1.
 FoFJK:  IHMeth= 1 ICntrl=       0 DoSepK=F KAlg= 0 I1Cent=           0 FoldK=F
 IRaf=         0 NMat=       1 IRICut=       1 DoRegI=T DoRafI=F ISym2E= 0 IDoP0=0 IntGTp=1.
 FoFCou: FMM=F IPFlag=           0 FMFlag=      100000 FMFlg1=           0
         NFxFlg=           0 DoJE=F BraDBF=F KetDBF=F FulRan=T
         wScrn=  0.000000 ICntrl=         0 IOpCl=  0 I1Cent=           0 NGrid=           0
         NMat0=    1 NMatS0=      1 NMatT0=    0 NMatD0=    1 NMtDS0=    0 NMtDT0=    0
 Symmetry not used in FoFCou.
 LinEq1:  Iter=  0 NonCon=     1 RMS=3.23D-03 Max=1.02D-01 NDo=     1
 LinEq1:  Iter=  1 NonCon=     1 RMS=8.40D-04 Max=3.01D-02 NDo=     1
 LinEq1:  Iter=  2 NonCon=     1 RMS=4.42D-04 Max=1.64D-02 NDo=     1
 LinEq1:  Iter=  3 NonCon=     1 RMS=1.90D-04 Max=9.05D-03 NDo=     1
 LinEq1:  Iter=  4 NonCon=     1 RMS=7.13D-05 Max=4.55D-03 NDo=     1
 LinEq1:  Iter=  5 NonCon=     1 RMS=2.97D-05 Max=1.17D-03 NDo=     1
 LinEq1:  Iter=  6 NonCon=     1 RMS=1.35D-05 Max=6.06D-04 NDo=     1
 LinEq1:  Iter=  7 NonCon=     1 RMS=4.75D-06 Max=2.78D-04 NDo=     1
 LinEq1:  Iter=  8 NonCon=     1 RMS=2.25D-06 Max=8.20D-05 NDo=     1
 LinEq1:  Iter=  9 NonCon=     1 RMS=7.89D-07 Max=2.50D-05 NDo=     1
 LinEq1:  Iter= 10 NonCon=     1 RMS=2.82D-07 Max=1.01D-05 NDo=     1
 LinEq1:  Iter= 11 NonCon=     1 RMS=1.25D-07 Max=4.16D-06 NDo=     1
 LinEq1:  Iter= 12 NonCon=     1 RMS=4.84D-08 Max=1.87D-06 NDo=     1
 LinEq1:  Iter= 13 NonCon=     1 RMS=2.19D-08 Max=5.16D-07 NDo=     1
 LinEq1:  Iter= 14 NonCon=     1 RMS=6.59D-09 Max=1.47D-07 NDo=     1
 LinEq1:  Iter= 15 NonCon=     1 RMS=3.19D-09 Max=1.11D-07 NDo=     1
 LinEq1:  Iter= 16 NonCon=     1 RMS=1.16D-09 Max=5.01D-08 NDo=     1
 LinEq1:  Iter= 17 NonCon=     1 RMS=5.76D-10 Max=2.87D-08 NDo=     1
 LinEq1:  Iter= 18 NonCon=     1 RMS=2.25D-10 Max=9.35D-09 NDo=     1
 LinEq1:  Iter= 19 NonCon=     1 RMS=8.14D-11 Max=3.22D-09 NDo=     1
 LinEq1:  Iter= 20 NonCon=     0 RMS=3.20D-11 Max=9.84D-10 NDo=     1
 Linear equations converged to 1.000D-10 1.000D-09 after    20 iterations.
 End of Minotr F.D. properties file   721 does not exist.
 End of Minotr F.D. properties file   722 does not exist.
 End of Minotr F.D. properties file   788 does not exist.
 Leave Link 1002 at Fri Aug 15 19:55:50 2025, MaxMem=  1342177280 cpu:            2747.4 elap:             173.3
 (Enter /opt/bwhpc/common/chem/gaussian/g16.C.01/x86_64-Intel-avx2-source/g16/l1112.exe)
 MP22nd: MDV=    1342177280
 This link is doing NAtomX=    37 total of     3 degrees of freedom.
 Using gON3 I/O method in MakUI.
 Frozen-core window:  NFC=  24 NFV=   0.
 Using Ix for Sx.
 Use MO integrals over full window.
 Using OV2 memory method for fx*t*t/D, MaxI=     9 DoOO2=F NP=  16.
 Would need an additional  6891346926 words for in-memory AO integral storage.
 DD1Dir will call FoFJK  23 times, MxPair=       296
 NAB=  3403 NAA=     0 NBB=     0 NumPrc= 16.
 DD1Dir:  Pass   1 NRAB=   148 NRAA=     0 NRBB=     0 NR=   296.
 FoFJK:  IHMeth= 1 ICntrl=     200 DoSepK=F KAlg= 0 I1Cent=           0 FoldK=F
 IRaf= 990000000 NMat=     296 IRICut=     370 DoRegI=T DoRafI=T ISym2E= 2 IDoP0=3 IntGTp=3.
 FoFCou: FMM=F IPFlag=           0 FMFlag=           0 FMFlg1=           0
         NFxFlg=           0 DoJE=F BraDBF=F KetDBF=F FulRan=T
         wScrn=  0.000000 ICntrl=       200 IOpCl=  0 I1Cent=           0 NGrid=           0
         NMat0=  296 NMatS0=      0 NMatT0=  148 NMatD0=  296 NMtDS0=    0 NMtDT0=    0
 Integrals replicated using symmetry in FoFCou.
 Raff kept on since  22.29% of shell-pairs survive, threshold=   0.20 IRatSp=22.
 DD1Dir:  Pass   2 NRAB=   148 NRAA=     0 NRBB=     0 NR=   296.
 DD1Dir:  Pass   3 NRAB=   148 NRAA=     0 NRBB=     0 NR=   296.
 DD1Dir:  Pass   4 NRAB=   148 NRAA=     0 NRBB=     0 NR=   296.
 DD1Dir:  Pass   5 NRAB=   148 NRAA=     0 NRBB=     0 NR=   296.
 DD1Dir:  Pass   6 NRAB=   148 NRAA=     0 NRBB=     0 NR=   296.
 DD1Dir:  Pass   7 NRAB=   148 NRAA=     0 NRBB=     0 NR=   296.
 DD1Dir:  Pass   8 NRAB=   148 NRAA=     0 NRBB=     0 NR=   296.
 DD1Dir:  Pass   9 NRAB=   148 NRAA=     0 NRBB=     0 NR=   296.
 DD1Dir:  Pass  10 NRAB=   148 NRAA=     0 NRBB=     0 NR=   296.
 DD1Dir:  Pass  11 NRAB=   148 NRAA=     0 NRBB=     0 NR=   296.
 DD1Dir:  Pass  12 NRAB=   148 NRAA=     0 NRBB=     0 NR=   296.
 DD1Dir:  Pass  13 NRAB=   148 NRAA=     0 NRBB=     0 NR=   296.
 DD1Dir:  Pass  14 NRAB=   148 NRAA=     0 NRBB=     0 NR=   296.
 DD1Dir:  Pass  15 NRAB=   148 NRAA=     0 NRBB=     0 NR=   296.
 DD1Dir:  Pass  16 NRAB=   148 NRAA=     0 NRBB=     0 NR=   296.
 DD1Dir:  Pass  17 NRAB=   148 NRAA=     0 NRBB=     0 NR=   296.
 DD1Dir:  Pass  18 NRAB=   148 NRAA=     0 NRBB=     0 NR=   296.
 DD1Dir:  Pass  19 NRAB=   148 NRAA=     0 NRBB=     0 NR=   296.
 DD1Dir:  Pass  20 NRAB=   148 NRAA=     0 NRBB=     0 NR=   296.
 DD1Dir:  Pass  21 NRAB=   148 NRAA=     0 NRBB=     0 NR=   296.
 DD1Dir:  Pass  22 NRAB=   148 NRAA=     0 NRBB=     0 NR=   296.
 DD1Dir:  Pass  23 NRAB=   147 NRAA=     0 NRBB=     0 NR=   294.
 Symmetry is being used.
 Discarding MO integrals.
 Leave Link 1112 at Fri Aug 15 20:46:21 2025, MaxMem=  1342177280 cpu:           48334.5 elap:            3031.4
 (Enter /opt/bwhpc/common/chem/gaussian/g16.C.01/x86_64-Intel-avx2-source/g16/l601.exe)
 Copying SCF densities to generalized density rwf, IOpCl= 0 IROHF=0.

 **********************************************************************

            Population analysis using the MP2 Density.

 **********************************************************************

 Orbital symmetries:
       Occupied  (A) (A) (A) (A) (A) (A) (A) (A) (A) (A) (A) (A)
                 (A) (A) (A) (A) (A) (A) (A) (A) (A) (A) (A) (A)
                 (A) (A) (A) (A) (A) (A) (A) (A) (A) (A) (A) (A)
                 (A) (A) (A) (A) (A) (A) (A) (A) (A) (A) (A) (A)
                 (A) (A) (A) (A) (A) (A) (A) (A) (A) (A) (A) (A)
                 (A) (A) (A) (A) (A) (A) (A) (A) (A) (A) (A) (A)
                 (A) (A) (A) (A) (A) (A) (A) (A) (A) (A)
       Virtual   (A) (A) (A) (A) (A) (A) (A) (A) (A) (A) (A) (A)
                 (A) (A) (A) (A) (A) (A) (A) (A) (A) (A) (A) (A)
                 (A) (A) (A) (A) (A) (A) (A) (A) (A) (A) (A) (A)
                 (A) (A) (A) (A) (A) (A) (A) (A) (A) (A) (A) (A)
                 (A) (A) (A) (A) (A) (A) (A) (A) (A) (A) (A) (A)
                 (A) (A) (A) (A) (A) (A) (A) (A) (A) (A) (A) (A)
                 (A) (A) (A) (A) (A) (A) (A) (A) (A) (A) (A) (A)
                 (A) (A) (A) (A) (A) (A) (A) (A) (A) (A) (A) (A)
                 (A) (A) (A) (A) (A) (A) (A) (A) (A) (A) (A) (A)
                 (A) (A) (A) (A) (A) (A) (A) (A) (A) (A) (A) (A)
                 (A) (A) (A) (A) (A) (A) (A) (A) (A) (A) (A) (A)
                 (A) (A) (A) (A) (A) (A) (A) (A) (A) (A) (A) (A)
                 (A) (A) (A) (A) (A) (A) (A) (A) (A) (A) (A) (A)
                 (A) (A) (A) (A) (A) (A) (A) (A) (A) (A) (A) (A)
                 (A) (A) (A) (A) (A) (A) (A) (A) (A) (A) (A) (A)
                 (A) (A) (A) (A) (A) (A) (A) (A) (A) (A) (A) (A)
                 (A) (A) (A) (A) (A) (A) (A) (A) (A) (A) (A) (A)
                 (A) (A) (A) (A) (A) (A) (A) (A) (A) (A) (A) (A)
                 (A) (A) (A) (A) (A) (A) (A) (A) (A) (A) (A) (A)
                 (A) (A) (A) (A) (A) (A) (A) (A) (A) (A) (A) (A)
                 (A) (A) (A) (A) (A) (A) (A) (A) (A) (A) (A) (A)
                 (A) (A) (A) (A) (A) (A) (A) (A) (A) (A) (A) (A)
                 (A) (A) (A) (A) (A) (A) (A) (A) (A) (A) (A) (A)
                 (A) (A) (A) (A) (A) (A) (A) (A) (A) (A) (A) (A)
                 (A) (A) (A) (A) (A) (A) (A) (A) (A) (A) (A) (A)
                 (A) (A) (A) (A) (A) (A) (A) (A) (A) (A) (A) (A)
                 (A) (A) (A) (A) (A) (A) (A)
 The electronic state is 1-A.
 Alpha  occ. eigenvalues --  -20.60931 -20.58407 -20.58059 -15.83490 -11.32499
 Alpha  occ. eigenvalues --  -11.29546 -11.29379 -11.28183 -11.27604 -11.27357
 Alpha  occ. eigenvalues --  -11.27281 -11.26864 -11.26827 -11.26771 -11.26571
 Alpha  occ. eigenvalues --  -11.26441 -11.26292 -11.26235 -11.26065 -11.25765
 Alpha  occ. eigenvalues --  -11.25734 -11.25702 -11.25563 -11.24340  -1.59110
 Alpha  occ. eigenvalues --   -1.42379  -1.38325  -1.21550  -1.17316  -1.14158
 Alpha  occ. eigenvalues --   -1.13242  -1.09912  -1.07378  -1.04478  -1.03265
 Alpha  occ. eigenvalues --   -1.00950  -0.99008  -0.94398  -0.88127  -0.87548
 Alpha  occ. eigenvalues --   -0.86246  -0.84552  -0.80515  -0.79975  -0.76206
 Alpha  occ. eigenvalues --   -0.75988  -0.74330  -0.72699  -0.71709  -0.70693
 Alpha  occ. eigenvalues --   -0.70143  -0.70142  -0.68022  -0.65880  -0.64318
 Alpha  occ. eigenvalues --   -0.63109  -0.62283  -0.60883  -0.60202  -0.59377
 Alpha  occ. eigenvalues --   -0.58594  -0.57629  -0.57389  -0.56811  -0.56664
 Alpha  occ. eigenvalues --   -0.54436  -0.54178  -0.52103  -0.51461  -0.49271
 Alpha  occ. eigenvalues --   -0.48194  -0.47913  -0.47596  -0.47135  -0.45355
 Alpha  occ. eigenvalues --   -0.43418  -0.40653  -0.39042  -0.35781  -0.33459
 Alpha  occ. eigenvalues --   -0.31185  -0.25811
 Alpha virt. eigenvalues --    0.01439   0.06867   0.08115   0.11640   0.13510
 Alpha virt. eigenvalues --    0.15584   0.17272   0.17724   0.17950   0.18874
 Alpha virt. eigenvalues --    0.19076   0.19855   0.21056   0.21436   0.24110
 Alpha virt. eigenvalues --    0.24586   0.24686   0.27499   0.28731   0.29712
 Alpha virt. eigenvalues --    0.31454   0.33120   0.34221   0.34756   0.36535
 Alpha virt. eigenvalues --    0.38786   0.39713   0.40460   0.41371   0.43117
 Alpha virt. eigenvalues --    0.44658   0.45191   0.45818   0.46150   0.46829
 Alpha virt. eigenvalues --    0.47483   0.49070   0.49793   0.52016   0.53818
 Alpha virt. eigenvalues --    0.56946   0.58362   0.58728   0.60129   0.61631
 Alpha virt. eigenvalues --    0.63386   0.63547   0.63646   0.63797   0.65007
 Alpha virt. eigenvalues --    0.65067   0.65663   0.66057   0.66742   0.67031
 Alpha virt. eigenvalues --    0.67688   0.68146   0.69545   0.69894   0.70128
 Alpha virt. eigenvalues --    0.70631   0.71332   0.71631   0.72686   0.72857
 Alpha virt. eigenvalues --    0.73175   0.73526   0.73927   0.74175   0.74733
 Alpha virt. eigenvalues --    0.75391   0.75804   0.76595   0.76778   0.77903
 Alpha virt. eigenvalues --    0.78256   0.78622   0.79386   0.80264   0.80887
 Alpha virt. eigenvalues --    0.82199   0.83057   0.84073   0.85011   0.85953
 Alpha virt. eigenvalues --    0.86537   0.87067   0.88222   0.88790   0.89626
 Alpha virt. eigenvalues --    0.89988   0.90237   0.91232   0.91984   0.92759
 Alpha virt. eigenvalues --    0.94093   0.94355   0.95496   0.96438   0.98598
 Alpha virt. eigenvalues --    1.00242   1.00360   1.00934   1.01972   1.04724
 Alpha virt. eigenvalues --    1.04913   1.06511   1.06572   1.07500   1.08640
 Alpha virt. eigenvalues --    1.09181   1.09822   1.10374   1.11262   1.11940
 Alpha virt. eigenvalues --    1.12316   1.13347   1.14152   1.15089   1.15147
 Alpha virt. eigenvalues --    1.15887   1.16044   1.16593   1.16985   1.18161
 Alpha virt. eigenvalues --    1.18829   1.19068   1.19489   1.20655   1.21058
 Alpha virt. eigenvalues --    1.21552   1.23149   1.23425   1.24595   1.24935
 Alpha virt. eigenvalues --    1.25350   1.26350   1.27496   1.27592   1.28222
 Alpha virt. eigenvalues --    1.28863   1.29745   1.30075   1.30515   1.31145
 Alpha virt. eigenvalues --    1.31420   1.32732   1.33434   1.34960   1.35970
 Alpha virt. eigenvalues --    1.37934   1.38567   1.38909   1.39344   1.40807
 Alpha virt. eigenvalues --    1.44019   1.44527   1.49104   1.51370   1.56329
 Alpha virt. eigenvalues --    1.56731   1.57472   1.58024   1.58186   1.59015
 Alpha virt. eigenvalues --    1.59630   1.60215   1.61165   1.61794   1.62275
 Alpha virt. eigenvalues --    1.63016   1.63819   1.65873   1.66862   1.67381
 Alpha virt. eigenvalues --    1.67953   1.68896   1.69960   1.70549   1.72356
 Alpha virt. eigenvalues --    1.73967   1.74158   1.74692   1.76206   1.76924
 Alpha virt. eigenvalues --    1.77872   1.78348   1.79308   1.79967   1.82218
 Alpha virt. eigenvalues --    1.82613   1.82970   1.83830   1.84523   1.85683
 Alpha virt. eigenvalues --    1.86216   1.86869   1.87512   1.88498   1.88632
 Alpha virt. eigenvalues --    1.90145   1.90439   1.91532   1.92727   1.92991
 Alpha virt. eigenvalues --    1.93464   1.93888   1.95631   1.96815   1.97344
 Alpha virt. eigenvalues --    1.98486   1.99591   2.00389   2.00877   2.01619
 Alpha virt. eigenvalues --    2.02345   2.03697   2.04982   2.05812   2.06393
 Alpha virt. eigenvalues --    2.07054   2.08216   2.08611   2.09203   2.09832
 Alpha virt. eigenvalues --    2.10799   2.10992   2.11513   2.12070   2.12759
 Alpha virt. eigenvalues --    2.14361   2.15788   2.17220   2.18203   2.19593
 Alpha virt. eigenvalues --    2.20770   2.22032   2.23858   2.24655   2.25094
 Alpha virt. eigenvalues --    2.26008   2.26867   2.28910   2.29784   2.30132
 Alpha virt. eigenvalues --    2.31921   2.33738   2.34634   2.35004   2.35820
 Alpha virt. eigenvalues --    2.37477   2.38408   2.39657   2.40704   2.41045
 Alpha virt. eigenvalues --    2.41636   2.42535   2.43110   2.45325   2.46439
 Alpha virt. eigenvalues --    2.48054   2.48811   2.50304   2.50983   2.51995
 Alpha virt. eigenvalues --    2.53043   2.55214   2.55901   2.57974   2.59273
 Alpha virt. eigenvalues --    2.61570   2.62573   2.65968   2.67185   2.68489
 Alpha virt. eigenvalues --    2.69643   2.70680   2.76731   2.78930   2.79290
 Alpha virt. eigenvalues --    2.80659   2.82464   2.83610   2.86338   2.87048
 Alpha virt. eigenvalues --    2.92038   2.94626   2.96568   2.98619   2.98995
 Alpha virt. eigenvalues --    2.99942   3.02011   3.03125   3.06628   3.07916
 Alpha virt. eigenvalues --    3.09850   3.11319   3.12980   3.14724   3.15594
 Alpha virt. eigenvalues --    3.16913   3.20628   3.22752   3.30736   3.34180
 Alpha virt. eigenvalues --    3.37601   3.38493   3.53522   3.60432   3.61607
 Alpha virt. eigenvalues --    3.62975   3.68492   3.72054   3.79392   3.81284
 Alpha virt. eigenvalues --    3.86746   4.02671   4.06351   4.14463
          Condensed to atoms (all electrons):
               1          2          3          4          5          6
     1  C    5.614120   0.340070   0.036517  -0.112588  -0.001868   0.000137
     2  C    0.340070   5.136562   0.354935   0.035151   0.009350  -0.000521
     3  C    0.036517   0.354935   5.071002   0.334061  -0.110462   0.008564
     4  C   -0.112588   0.035151   0.334061   5.537618   0.313887   0.036441
     5  C   -0.001868   0.009350  -0.110462   0.313887   5.074712   0.377524
     6  C    0.000137  -0.000521   0.008564   0.036441   0.377524   5.156218
     7  C   -0.000369   0.000060  -0.001353  -0.113652   0.032108   0.304060
     8  C   -0.000004   0.000001  -0.000004  -0.002404   0.014458  -0.110492
     9  C    0.000001  -0.000000   0.000001  -0.000037  -0.000010   0.014546
    10  C   -0.000003   0.000001  -0.000004  -0.000106   0.000042  -0.002945
    11  C   -0.002296  -0.000014  -0.000140   0.026670  -0.003907   0.022197
    12  C    0.014155  -0.000020   0.000074  -0.004015  -0.000044   0.000078
    13  C   -0.122283   0.014508  -0.003180   0.022247   0.000091  -0.000080
    14  C    0.127177   0.010545  -0.118384  -0.038110   0.020697  -0.003945
    15  C    0.014246  -0.112993   0.013124   0.127477   0.009866  -0.117785
    16  C    0.027926  -0.003714   0.022319  -0.029997  -0.120489  -0.006492
    17  C    0.199416  -0.110239   0.012380  -0.001922   0.000000   0.000000
    18  C    0.000000   0.000000  -0.000000  -0.000000  -0.000247  -0.021550
    19  C   -0.034371  -0.025091  -0.000573   0.000046  -0.000000  -0.000000
    20  C    0.000000  -0.000000  -0.000000   0.000002  -0.000057  -0.000510
    21  O   -0.000000   0.000000  -0.000000  -0.000000  -0.000000  -0.000003
    22  N    0.002245  -0.000239  -0.000005   0.000000  -0.000000  -0.000000
    23  O   -0.000111   0.000002  -0.000000  -0.000000  -0.000000  -0.000000
    24  O    0.001326   0.000018   0.000000  -0.000000  -0.000000   0.000000
    25  H   -0.030438   0.383192  -0.042373   0.008495  -0.000294   0.000006
    26  H    0.007894  -0.039741   0.380676  -0.032280  -0.015211   0.000418
    27  H   -0.000052   0.000374  -0.015689  -0.035950   0.380869  -0.036931
    28  H    0.000001   0.000007  -0.000297   0.007952  -0.046282   0.377044
    29  H    0.000000   0.000000   0.000000  -0.000000   0.000005  -0.000243
    30  H   -0.000001   0.000000  -0.000000   0.000004   0.000000   0.000034
    31  H   -0.000368   0.000004   0.000001   0.000016   0.000000   0.000005
    32  H   -0.039123  -0.001049   0.000010  -0.000062   0.000002  -0.000000
    33  H    0.015132   0.010087  -0.000039  -0.000111  -0.000000   0.000000
    34  H   -0.000000   0.000000  -0.000000  -0.000058   0.001328   0.006153
    35  H   -0.016064   0.004144   0.000602  -0.000041  -0.000000   0.000000
    36  H   -0.000000  -0.000000   0.000000  -0.000000   0.000001  -0.000008
    37  H    0.000000  -0.000000   0.000000   0.000000   0.000000   0.000000
               7          8          9         10         11         12
     1  C   -0.000369  -0.000004   0.000001  -0.000003  -0.002296   0.014155
     2  C    0.000060   0.000001  -0.000000   0.000001  -0.000014  -0.000020
     3  C   -0.001353  -0.000004   0.000001  -0.000004  -0.000140   0.000074
     4  C   -0.113652  -0.002404  -0.000037  -0.000106   0.026670  -0.004015
     5  C    0.032108   0.014458  -0.000010   0.000042  -0.003907  -0.000044
     6  C    0.304060  -0.110492   0.014546  -0.002945   0.022197   0.000078
     7  C    5.807342   0.163968   0.018117  -0.111848  -0.044042   0.020925
     8  C    0.163968   5.503276   0.353445   0.019229  -0.107650  -0.001777
     9  C    0.018117   0.353445   5.096305   0.347186   0.034021   0.009290
    10  C   -0.111848   0.019229   0.347186   5.110637   0.342215  -0.111099
    11  C   -0.044042  -0.107650   0.034021   0.342215   5.514952   0.307326
    12  C    0.020925  -0.001777   0.009290  -0.111099   0.307326   5.091524
    13  C   -0.003861   0.000115  -0.000503   0.008683   0.036660   0.376214
    14  C    0.027683  -0.000309   0.000066  -0.001421  -0.113458   0.035247
    15  C   -0.034573   0.027212  -0.004300   0.023166  -0.029149  -0.120876
    16  C    0.051388   0.003200  -0.113679   0.008776   0.126534   0.010808
    17  C    0.000002   0.000000   0.000000  -0.000001  -0.000059   0.000090
    18  C   -0.069140   0.291537  -0.092320   0.010162  -0.001147   0.000003
    19  C    0.000000   0.000000  -0.000000  -0.000000   0.000001  -0.000049
    20  C    0.010677  -0.032341  -0.021321   0.000120  -0.000005   0.000000
    21  O   -0.000074   0.000625   0.000017  -0.000003  -0.000000  -0.000000
    22  N   -0.000000   0.000000   0.000000   0.000000   0.000000  -0.000000
    23  O   -0.000000   0.000000   0.000000  -0.000000  -0.000000  -0.000000
    24  O   -0.000000   0.000000  -0.000000  -0.000000   0.000000  -0.000001
    25  H    0.000001   0.000000  -0.000000   0.000000   0.000000   0.000002
    26  H   -0.000022  -0.000001   0.000000  -0.000000   0.000004   0.000000
    27  H    0.007953  -0.000359   0.000006   0.000000   0.000019   0.000000
    28  H   -0.015747  -0.033223  -0.000651  -0.000004  -0.000119   0.000002
    29  H    0.010765  -0.036696   0.375992  -0.036764   0.007675  -0.000314
    30  H    0.000147   0.007535  -0.041908   0.379590  -0.030862  -0.015643
    31  H   -0.000165  -0.000041   0.000298  -0.015785  -0.036297   0.379716
    32  H    0.000018   0.000001   0.000007  -0.000285   0.008034  -0.043502
    33  H    0.000000  -0.000000   0.000000  -0.000000  -0.000061   0.000907
    34  H   -0.027142  -0.003649   0.008223  -0.000101  -0.000019   0.000000
    35  H   -0.000000  -0.000000   0.000000   0.000000  -0.000000   0.000001
    36  H    0.000056  -0.008459   0.004863   0.000524  -0.000016   0.000000
    37  H    0.000016  -0.000465  -0.000012  -0.000001  -0.000000  -0.000000
              13         14         15         16         17         18
     1  C   -0.122283   0.127177   0.014246   0.027926   0.199416   0.000000
     2  C    0.014508   0.010545  -0.112993  -0.003714  -0.110239   0.000000
     3  C   -0.003180  -0.118384   0.013124   0.022319   0.012380  -0.000000
     4  C    0.022247  -0.038110   0.127477  -0.029997  -0.001922  -0.000000
     5  C    0.000091   0.020697   0.009866  -0.120489   0.000000  -0.000247
     6  C   -0.000080  -0.003945  -0.117785  -0.006492   0.000000  -0.021550
     7  C   -0.003861   0.027683  -0.034573   0.051388   0.000002  -0.069140
     8  C    0.000115  -0.000309   0.027212   0.003200   0.000000   0.291537
     9  C   -0.000503   0.000066  -0.004300  -0.113679   0.000000  -0.092320
    10  C    0.008683  -0.001421   0.023166   0.008776  -0.000001   0.010162
    11  C    0.036660  -0.113458  -0.029149   0.126534  -0.000059  -0.001147
    12  C    0.376214   0.035247  -0.120876   0.010808   0.000090   0.000003
    13  C    5.171170   0.304600  -0.011011  -0.117719  -0.023705   0.000000
    14  C    0.304600   5.863301   0.045504  -0.035281  -0.066163   0.000000
    15  C   -0.011011   0.045504   6.139459  -0.032555   0.018591  -0.000188
    16  C   -0.117719  -0.035281  -0.032555   6.165287  -0.000316   0.016564
    17  C   -0.023705  -0.066163   0.018591  -0.000316   5.360698  -0.000000
    18  C    0.000000   0.000000  -0.000188   0.016564  -0.000000   5.210215
    19  C   -0.000123   0.011097  -0.000294   0.000000   0.310743  -0.000000
    20  C   -0.000000   0.000000   0.000002  -0.000166   0.000000   0.487490
    21  O    0.000000  -0.000000   0.000000   0.000001  -0.000000  -0.058438
    22  N   -0.000020  -0.000049   0.000001  -0.000000  -0.026276   0.000000
    23  O   -0.000000  -0.000000   0.000000   0.000000   0.010762   0.000000
    24  O   -0.000025  -0.000042   0.000000   0.000000   0.013392   0.000000
    25  H   -0.000144   0.011764  -0.000723   0.000017  -0.030548  -0.000000
    26  H    0.000034   0.000158   0.010803  -0.000309  -0.000284  -0.000000
    27  H    0.000004  -0.000169   0.011251  -0.000232  -0.000001   0.000021
    28  H    0.000000   0.000014  -0.000722   0.013534   0.000000   0.010710
    29  H    0.000007   0.000001   0.000024  -0.000193  -0.000000  -0.016719
    30  H    0.000396  -0.000020  -0.000336   0.011255  -0.000000  -0.000316
    31  H   -0.035296   0.008516  -0.000259   0.011205   0.000040  -0.000001
    32  H    0.378508  -0.017469   0.012769  -0.000810   0.012009   0.000000
    33  H    0.004101  -0.033440  -0.000458   0.000103   0.344205   0.000000
    34  H   -0.000000   0.000001   0.000045  -0.000979   0.000000   0.349918
    35  H   -0.000003  -0.000359   0.000031   0.000000  -0.027448  -0.000000
    36  H    0.000000   0.000000   0.000000  -0.000042   0.000000  -0.056826
    37  H    0.000000  -0.000000  -0.000000  -0.000000  -0.000000   0.008354
              19         20         21         22         23         24
     1  C   -0.034371   0.000000  -0.000000   0.002245  -0.000111   0.001326
     2  C   -0.025091  -0.000000   0.000000  -0.000239   0.000002   0.000018
     3  C   -0.000573  -0.000000  -0.000000  -0.000005  -0.000000   0.000000
     4  C    0.000046   0.000002  -0.000000   0.000000  -0.000000  -0.000000
     5  C   -0.000000  -0.000057  -0.000000  -0.000000  -0.000000  -0.000000
     6  C   -0.000000  -0.000510  -0.000003  -0.000000  -0.000000   0.000000
     7  C    0.000000   0.010677  -0.000074  -0.000000  -0.000000  -0.000000
     8  C    0.000000  -0.032341   0.000625   0.000000   0.000000   0.000000
     9  C   -0.000000  -0.021321   0.000017   0.000000   0.000000  -0.000000
    10  C   -0.000000   0.000120  -0.000003   0.000000  -0.000000  -0.000000
    11  C    0.000001  -0.000005  -0.000000   0.000000  -0.000000   0.000000
    12  C   -0.000049   0.000000  -0.000000  -0.000000  -0.000000  -0.000001
    13  C   -0.000123  -0.000000   0.000000  -0.000020  -0.000000  -0.000025
    14  C    0.011097   0.000000  -0.000000  -0.000049  -0.000000  -0.000042
    15  C   -0.000294   0.000002   0.000000   0.000001   0.000000   0.000000
    16  C    0.000000  -0.000166   0.000001  -0.000000   0.000000   0.000000
    17  C    0.310743   0.000000  -0.000000  -0.026276   0.010762   0.013392
    18  C   -0.000000   0.487490  -0.058438   0.000000   0.000000   0.000000
    19  C    5.278579  -0.000000   0.000000   0.231458  -0.092860  -0.127494
    20  C   -0.000000   4.742546   0.386229   0.000000   0.000000   0.000000
    21  O    0.000000   0.386229   7.561365   0.000000   0.000000   0.000000
    22  N    0.231458   0.000000   0.000000   5.869566   0.369935   0.408849
    23  O   -0.092860   0.000000   0.000000   0.369935   8.023138  -0.095226
    24  O   -0.127494   0.000000   0.000000   0.408849  -0.095226   7.981937
    25  H    0.006392  -0.000000  -0.000000   0.000009  -0.000144  -0.000007
    26  H    0.000013   0.000000  -0.000000  -0.000000   0.000000  -0.000000
    27  H    0.000000  -0.000000   0.000000   0.000000  -0.000000   0.000000
    28  H   -0.000000   0.001154  -0.000084   0.000000   0.000000   0.000000
    29  H    0.000000   0.004437  -0.000219  -0.000000   0.000000   0.000000
    30  H    0.000000   0.000011  -0.000000  -0.000000  -0.000000  -0.000000
    31  H   -0.000000  -0.000000  -0.000000  -0.000000   0.000000   0.000000
    32  H    0.002085  -0.000000   0.000000   0.000044  -0.000002  -0.000772
    33  H   -0.051391  -0.000000   0.000000  -0.014741   0.001194   0.044935
    34  H   -0.000000  -0.038665   0.003614   0.000000   0.000000  -0.000000
    35  H    0.384701   0.000000   0.000000  -0.024464   0.011634   0.004234
    36  H    0.000000   0.387801  -0.036705  -0.000000   0.000000   0.000000
[...]
    21  O   -0.000000  -0.000000   0.000000  -0.000084  -0.000221  -0.000000
    22  N    0.000009  -0.000000   0.000000   0.000000  -0.000000  -0.000000
    23  O   -0.000144   0.000000  -0.000000   0.000000   0.000000  -0.000000
    24  O   -0.000007  -0.000000   0.000000   0.000000   0.000000  -0.000000
    25  H    0.698280  -0.012037  -0.000012  -0.000000   0.000000  -0.000000
    26  H   -0.012037   0.686331   0.004008  -0.000021  -0.000000   0.000000
    27  H   -0.000012   0.004008   0.690867  -0.012430  -0.000000   0.000000
    28  H   -0.000000  -0.000021  -0.012430   0.689660  -0.000026   0.000000
    29  H    0.000000  -0.000000  -0.000000  -0.000026   0.697919  -0.011797
    30  H   -0.000000   0.000000   0.000000   0.000000  -0.011797   0.693390
    31  H   -0.000000   0.000000   0.000000  -0.000000  -0.000015   0.004274
    32  H   -0.000024   0.000001  -0.000000   0.000000  -0.000000  -0.000022
    33  H    0.000076   0.000004   0.000000   0.000000  -0.000000   0.000000
    34  H    0.000000   0.000000   0.000069  -0.005703   0.000070   0.000006
    35  H   -0.002954   0.000058  -0.000000  -0.000000   0.000000   0.000000
    36  H    0.000000   0.000000   0.000000  -0.000074   0.000625   0.000044
    37  H    0.000000   0.000000  -0.000000   0.000003   0.000030   0.000000
              31         32         33         34         35         36
     1  C   -0.000368  -0.039123   0.015131  -0.000000  -0.016064  -0.000000
     2  C    0.000004  -0.001049   0.010087   0.000000   0.004144  -0.000000
     3  C    0.000001   0.000010  -0.000039  -0.000000   0.000602   0.000000
     4  C    0.000016  -0.000062  -0.000111  -0.000059  -0.000041  -0.000000
     5  C    0.000000   0.000002  -0.000000   0.001327  -0.000000   0.000001
     6  C    0.000005  -0.000000   0.000000   0.006171   0.000000  -0.000008
     7  C   -0.000165   0.000018   0.000000  -0.027231  -0.000000   0.000049
     8  C   -0.000041   0.000001  -0.000000  -0.003721  -0.000000  -0.008495
     9  C    0.000297   0.000007   0.000000   0.008260   0.000000   0.004854
    10  C   -0.015786  -0.000285  -0.000000  -0.000100   0.000000   0.000529
    11  C   -0.036295   0.008035  -0.000061  -0.000020  -0.000000  -0.000016
    12  C    0.379710  -0.043502   0.000907   0.000000   0.000001   0.000000
    13  C   -0.035294   0.378509   0.004101  -0.000000  -0.000003   0.000000
    14  C    0.008515  -0.017465  -0.033441   0.000001  -0.000359   0.000000
    15  C   -0.000258   0.012770  -0.000458   0.000046   0.000031   0.000000
    16  C    0.011206  -0.000810   0.000103  -0.000982   0.000000  -0.000042
    17  C    0.000040   0.012009   0.344202   0.000000  -0.027450   0.000000
    18  C   -0.000001   0.000000   0.000000   0.349759  -0.000000  -0.056679
    19  C   -0.000000   0.002085  -0.051388  -0.000000   0.384702   0.000000
    20  C   -0.000000  -0.000000  -0.000000  -0.038714   0.000000   0.387967
    21  O   -0.000000   0.000000   0.000000   0.003621   0.000000  -0.036651
    22  N   -0.000000   0.000044  -0.014741   0.000000  -0.024462  -0.000000
    23  O    0.000000  -0.000002   0.001194   0.000000   0.011634   0.000000
    24  O    0.000000  -0.000772   0.044936  -0.000000   0.004234   0.000000
    25  H   -0.000000  -0.000024   0.000076   0.000000  -0.002954   0.000000
    26  H    0.000000   0.000001   0.000004   0.000000   0.000058   0.000000
    27  H    0.000000  -0.000000   0.000000   0.000069  -0.000000   0.000000
    28  H   -0.000000   0.000000   0.000000  -0.005703  -0.000000  -0.000074
    29  H   -0.000015  -0.000000  -0.000000   0.000070   0.000000   0.000625
    30  H    0.004274  -0.000022   0.000000   0.000006   0.000000   0.000044
    31  H    0.691726  -0.013054   0.000096   0.000000   0.000000   0.000000
    32  H   -0.013054   0.692640  -0.011022   0.000000  -0.000003  -0.000000
    33  H    0.000096  -0.011022   0.635750   0.000000   0.006017   0.000000
    34  H    0.000000   0.000000   0.000000   0.665200   0.000000   0.009855
    35  H    0.000000  -0.000003   0.006017   0.000000   0.616752   0.000000
    36  H    0.000000  -0.000000   0.000000   0.009855   0.000000   0.686074
    37  H    0.000000  -0.000000  -0.000000  -0.000560   0.000000  -0.013228
              37
     1  C    0.000000
     2  C   -0.000000
     3  C    0.000000
     4  C    0.000000
     5  C    0.000000
     6  C    0.000000
     7  C    0.000016
     8  C   -0.000464
     9  C   -0.000012
    10  C   -0.000001
    11  C   -0.000000
    12  C   -0.000000
    13  C    0.000000
    14  C   -0.000000
    15  C   -0.000000
    16  C   -0.000000
    17  C   -0.000000
    18  C    0.008337
    19  C    0.000000
    20  C   -0.034900
    21  O    0.339873
    22  N    0.000000
    23  O    0.000000
    24  O    0.000000
    25  H    0.000000
    26  H    0.000000
    27  H   -0.000000
    28  H    0.000003
    29  H    0.000030
    30  H    0.000000
    31  H    0.000000
    32  H   -0.000000
    33  H   -0.000000
    34  H   -0.000560
    35  H    0.000000
    36  H   -0.013228
    37  H    0.530177
 Mulliken charges:
               1
     1  C   -0.040414
     2  C   -0.005394
     3  C    0.058244
     4  C   -0.078745
     5  C    0.063922
     6  C   -0.001964
     7  C   -0.033407
     8  C   -0.046408
     9  C    0.012355
    10  C    0.030088
    11  C   -0.057045
    12  C    0.050947
    13  C    0.000628
    14  C   -0.037766
    15  C    0.012657
    16  C   -0.005991
    17  C    0.004624
    18  C   -0.068483
    19  C    0.107147
    20  C    0.107843
    21  O   -0.196411
    22  N    0.183682
    23  O   -0.228289
    24  O   -0.231110
    25  H    0.011458
    26  H    0.009504
    27  H    0.006377
    28  H    0.015258
    29  H    0.005554
    30  H    0.004241
    31  H    0.005384
    32  H    0.021065
    33  H    0.048655
    34  H    0.032706
    35  H    0.043163
    36  H    0.025196
    37  H    0.170730
 Sum of Mulliken charges =  -0.00000
 Mulliken charges with hydrogens summed into heavy atoms:
               1
     1  C   -0.040414
     2  C    0.006063
     3  C    0.067747
     4  C   -0.078745
     5  C    0.070299
     6  C    0.013294
     7  C   -0.033407
     8  C   -0.046408
     9  C    0.017909
    10  C    0.034329
    11  C   -0.057045
    12  C    0.056331
    13  C    0.021694
    14  C   -0.037766
    15  C    0.012657
    16  C   -0.005991
    17  C    0.053279
    18  C   -0.035776
    19  C    0.150310
    20  C    0.133038
    21  O   -0.025681
    22  N    0.183682
    23  O   -0.228289
    24  O   -0.231110
 Electronic spatial extent (au):  <R**2>=          11147.6083
 Charge=             -0.0000 electrons
 Dipole moment (field-independent basis, Debye):
    X=             -7.0860    Y=              0.4262    Z=              0.9516  Tot=              7.1623
 Quadrupole moment (field-independent basis, Debye-Ang):
   XX=           -143.3953   YY=           -125.4579   ZZ=           -143.6925
   XY=             18.8264   XZ=             -8.3515   YZ=             -1.0280
 Traceless Quadrupole moment (field-independent basis, Debye-Ang):
   XX=             -5.8801   YY=             12.0573   ZZ=             -6.1773
   XY=             18.8264   XZ=             -8.3515   YZ=             -1.0280
 Octapole moment (field-independent basis, Debye-Ang**2):
  XXX=           -573.9303  YYY=              7.6088  ZZZ=              4.1791  XYY=             -8.2143
  XXY=            -25.4584  XXZ=             63.9880  XZZ=             18.3597  YZZ=             -3.3456
  YYZ=              0.1003  XYZ=              7.8907
 Hexadecapole moment (field-independent basis, Debye-Ang**3):
 XXXX=         -12318.0115 YYYY=          -1827.0657 ZZZZ=           -165.0766 XXXY=            817.0711
 XXXZ=           -581.6658 YYYX=             17.6564 YYYZ=              0.2909 ZZZX=            -12.4587
 ZZZY=             -1.6602 XXYY=          -2390.9489 XXZZ=          -2053.0165 YYZZ=           -393.6390
 XXYZ=            -43.9334 YYXZ=              0.0778 ZZXY=            -27.2807
 N-N= 1.791065048207D+03 E-N=-6.024483710701D+03  KE= 1.046108930562D+03
  Exact polarizability:     513.589      23.137     255.284      -2.898      -2.353      78.284
 Approx polarizability:     390.242      33.910     270.359      -1.334      -2.528     100.881
 No NMR shielding tensors so no spin-rotation constants.
 Leave Link  601 at Sat Aug 16 08:26:02 2025, MaxMem=  1342177280 cpu:               4.4 elap:               0.3
 (Enter /opt/bwhpc/common/chem/gaussian/g16.C.01/x86_64-Intel-avx2-source/g16/l106.exe)
 NDeriv=      3 NFrqRd=  0 NDerD0=      0 MskFDP=       0 MskDFD=       0 MskDF0=       0
 Re-enter D2Numr:  atom      0 IXYZ=3 step-down number 1
 Max difference between analytic and numerical Dipole moment IMax=       3 EMax= 2.86D-04
 Max difference between off-diagonal Polarizability IMax=       2 JMax=       3 EMax= 5.86D-03
 Max difference between analytic and numerical Polarizability IMax=       1 EMax= 5.06D-02
 Max difference between off-diagonal HyperPolarizability IMax=       1 JMax=       1 KMax=       3 EMax= 1.30D+00
 Final packed hyperpolarizability:
 K=  1 block:
                1 
      1  0.106182D+05
 K=  2 block:
                1             2 
      1 -0.156533D+03
      2  0.329729D+03  0.972643D+02
 K=  3 block:
                1             2             3 
      1  0.230980D+02
      2  0.593733D+01 -0.423771D+01
      3 -0.155518D+02 -0.158854D+00  0.182037D+01
 FinFTb:  IFil= 1 IFilD=  777 LTop=  1 LFil=      5381 LTop1=  0 IMask=  1
 Leave Link  106 at Sat Aug 16 08:26:02 2025, MaxMem=  1342177280 cpu:               1.9 elap:               0.1
 (Enter /opt/bwhpc/common/chem/gaussian/g16.C.01/x86_64-Intel-avx2-source/g16/l9999.exe)

 ----------------------------------------------------------------------

 Electric dipole moment (input orientation):
 (Debye = 10**-18 statcoulomb cm , SI units = C m)
                  (au)            (Debye)         (10**-30 SI)
   Tot        0.281361D+01      0.715149D+01      0.238548D+02
   x          0.155213D+01      0.394513D+01      0.131595D+02
   y         -0.234472D+01     -0.595969D+01     -0.198794D+02
   z         -0.978869D-01     -0.248804D+00     -0.829920D+00

 Dipole polarizability, Alpha (input orientation).
 (esu units = cm**3 , SI units = C**2 m**2 J**-1)
 Alpha(0;0):
               (au)            (10**-24 esu)      (10**-40 SI)
   iso        0.282388D+03      0.418456D+02      0.465595D+02
   aniso      0.381345D+03      0.565095D+02      0.628754D+02
   xx         0.299508D+03      0.443826D+02      0.493823D+02
   yx        -0.993218D+02     -0.147180D+02     -0.163759D+02
   yy         0.466371D+03      0.691091D+02      0.768943D+02
   zx         0.172102D+02      0.255028D+01      0.283757D+01
   zy        -0.319531D+02     -0.473496D+01     -0.526835D+01
   zz         0.812848D+02      0.120452D+02      0.134021D+02

 First dipole hyperpolarizability, Beta (input orientation).
 ||, _|_  parallel and perpendicular components, (z) with respect to z axis,
 vector components x,y,z.  Values do not include the 1/n! factor of 1/2.
 (esu units = statvolt**-1 cm**4 , SI units = C**3 m**3 J**-2)
 Beta(0;0,0):
               (au)            (10**-30 esu)      (10**-50 SI)
   || (z)    -0.601304D+03     -0.519480D+01     -0.192800D+01
   _|_(z)    -0.200435D+03     -0.173160D+01     -0.642666D+00
   x         -0.165461D+05     -0.142945D+03     -0.530527D+02
   y          0.281581D+05      0.243264D+03      0.902850D+02
   z         -0.300652D+04     -0.259740D+02     -0.963999D+01
   ||         0.655954D+04      0.566693D+02      0.210323D+02
   xxx       -0.173517D+04     -0.149906D+02     -0.556360D+01
   xxy        0.248817D+04      0.214959D+02      0.797799D+01
   yxy       -0.374307D+04     -0.323372D+02     -0.120016D+02
   yyy        0.683378D+04      0.590385D+02      0.219116D+02
   xxz       -0.268664D+03     -0.232105D+01     -0.861435D+00
   yxz        0.412465D+03      0.356338D+01      0.132251D+01
   yyz       -0.727618D+03     -0.628605D+01     -0.233301D+01
   zxz       -0.371137D+02     -0.320633D+00     -0.119000D+00
   zyz        0.640787D+02      0.553590D+00      0.205459D+00
   zzz       -0.589125D+01     -0.508958D-01     -0.188895D-01

 ----------------------------------------------------------------------

 Dipole orientation:
     6         -6.45448369         -5.35755744        -11.70354103
     6         -4.24557350         -3.89037858        -11.38783979
     6         -3.48743155         -3.01896376         -9.04424590
     6         -4.91324507         -3.56746838         -6.85909339
     6         -4.15706782         -2.69986044         -4.41115903
     6         -5.54967733         -3.23609174         -2.30399245
     6         -7.84456686         -4.68027761         -2.43671266
     6         -9.32579611         -5.24141162         -0.24779666
     6        -11.53655553         -6.69910097         -0.56356848
     6        -12.27837705         -7.61396720         -2.90573330
     6        -10.86225284         -7.08533889         -5.09383144
     6        -11.60278530         -7.97287270         -7.53917713
     6        -10.22155304         -7.43518534         -9.65225565
     6         -7.94860080         -5.95181131         -9.52692675
     6         -7.16641144         -5.04010744         -7.08849446
     6         -8.62318192         -5.59613142         -4.86940313
     6         -7.18938344         -6.24633030        -14.20107014
     6         -8.59640087         -4.31091763          2.25666667
     6         -5.98356508         -5.83690702        -16.40595725
     6         -9.24827136         -5.39079854          4.46835092
     8         -8.56804098         -4.36540205          6.71101295
     7         -6.98554703         -6.87309179        -18.74443525
     8         -5.76379401         -6.40548433        -20.65665187
     8         -8.93440944         -8.12150775        -18.69646779
     1         -3.09567938         -3.42897164        -13.03728243
     1         -1.76519996         -1.89235684         -8.86587993
     1         -2.41828055         -1.59510241         -4.25248736
     1         -4.88644728         -2.56153736         -0.47386195
     1        -12.73771467         -7.06815614          1.07385332
     1        -14.01103089         -8.72777412         -3.07424415
     1        -13.32269513         -9.10810185         -7.69504969
     1        -10.87459459         -8.15954364        -11.46550119
     1         -8.90159171         -7.37982426        -14.38875329
     1         -7.42539501         -2.61523503          2.39073892
     1         -4.25321423         -4.77615066        -16.73223703
     1        -10.33639990         -7.15267822          4.55665143
     1         -9.08040527         -5.45914704          8.07643254

 Electric dipole moment (dipole orientation):
 (Debye = 10**-18 statcoulomb cm , SI units = C m)
                  (au)            (Debye)         (10**-30 SI)
   Tot        0.281361D+01      0.715149D+01      0.238548D+02
   x          0.000000D+00      0.000000D+00      0.000000D+00
   y          0.000000D+00      0.000000D+00      0.000000D+00
   z          0.281361D+01      0.715149D+01      0.238548D+02

 Dipole polarizability, Alpha (dipole orientation).
 (esu units = cm**3 , SI units = C**2 m**2 J**-1)
 Alpha(0;0):
               (au)            (10**-24 esu)      (10**-40 SI)
   iso        0.282388D+03      0.418456D+02      0.465595D+02
   aniso      0.381345D+03      0.565095D+02      0.628754D+02
   xx         0.209960D+03      0.311128D+02      0.346177D+02
   yx         0.785668D+02      0.116424D+02      0.129539D+02
   yy         0.133272D+03      0.197489D+02      0.219736D+02
   zx        -0.596486D+02     -0.883901D+01     -0.983472D+01
   zy         0.215048D+02      0.318668D+01      0.354566D+01
   zz         0.503932D+03      0.746751D+02      0.830872D+02

 First dipole hyperpolarizability, Beta (dipole orientation).
 ||, _|_  parallel and perpendicular components, (z) with respect to z axis,
 vector components x,y,z.  Values do not include the 1/n! factor of 1/2.
 (esu units = statvolt**-1 cm**4 , SI units = C**3 m**3 J**-2)
 Beta(0;0,0):
               (au)            (10**-30 esu)      (10**-50 SI)
   || (z)    -0.649771D+04     -0.561352D+02     -0.208340D+02
   _|_(z)    -0.216590D+04     -0.187117D+02     -0.694467D+01
   x          0.374061D+04      0.323159D+02      0.119937D+02
   y         -0.248792D+04     -0.214937D+02     -0.797716D+01
   z         -0.324886D+05     -0.280676D+03     -0.104170D+03
   ||         0.655954D+04      0.566693D+02      0.210323D+02
   xxx        0.146011D+03      0.126142D+01      0.468165D+00
   xxy        0.471802D+02      0.407600D+00      0.151277D+00
   yxy        0.224947D+02      0.194337D+00      0.721262D-01
   yyy       -0.524489D+01     -0.453118D-01     -0.168170D-01
   xxz       -0.339450D+03     -0.293258D+01     -0.108840D+01
   yxz       -0.587263D+02     -0.507350D+00     -0.188298D+00
   yyz       -0.149406D+03     -0.129075D+01     -0.479050D+00
   zxz        0.107836D+04      0.931622D+01      0.345762D+01
   zyz       -0.871241D+03     -0.752684D+01     -0.279351D+01
   zzz       -0.103407D+05     -0.893353D+02     -0.331559D+02

 ----------------------------------------------------------------------
 Unable to Open any file for archive entry.
 1\1\GINC-N0104\SP\RMP2-FC\CC-pVDZ\C20H13N1O3\KA_PR7831\16-Aug-2025\0\\
 #P mp2/cc-pvdz polar=Cubic\\p\\0,1\C,0,-7.1055123,2.7391098,-0.2629619
 \C,0,-5.8431997,3.3744014,-0.2665907\C,0,-4.6647227,2.6613301,-0.14676
 97\C,0,-4.6816976,1.2569217,-0.012659\C,0,-3.4744328,0.4967771,0.10413
 58\C,0,-3.4990491,-0.8630498,0.2354017\C,0,-4.7333038,-1.5972915,0.270
 9006\C,0,-4.7724422,-3.0192012,0.4155496\C,0,-6.0330537,-3.6535192,0.4
 239043\C,0,-7.2161516,-2.9434143,0.2801311\C,0,-7.208557,-1.5430993,0.
 1401379\C,0,-8.4144196,-0.7831108,0.0099413\C,0,-8.3952845,0.5766718,-
 0.1172524\C,0,-7.1612591,1.3144607,-0.1289297\C,0,-5.9362291,0.5716078
 ,-0.0001076\C,0,-5.9564085,-0.8566858,0.1390993\C,0,-8.3248797,3.52334
 64,-0.3943885\C,0,-3.5425296,-3.8016903,0.566854\C,0,-8.4284317,4.8603
 656,-0.5252481\C,0,-3.4052617,-5.1016073,0.2402147\O,0,-2.2456692,-5.7
 669497,0.4525422\N,0,-9.7352956,5.485266,-0.6466431\O,0,-9.7329725,6.7
 058732,-0.7618839\O,0,-10.7420843,4.7876145,-0.6291508\H,0,-5.7917671,
 4.4600963,-0.3684265\H,0,-3.7046795,3.1839703,-0.1559871\H,0,-2.519646
 9,1.0290319,0.0808129\H,0,-2.5544695,-1.4028313,0.3055691\H,0,-6.08329
 41,-4.7331259,0.5816529\H,0,-8.1738681,-3.4711274,0.2978542\H,0,-9.369
 2284,-1.316365,0.0142645\H,0,-9.343796,1.1041826,-0.2126679\H,0,-9.285
 7468,3.006319,-0.3909627\H,0,-2.6517144,-3.313979,0.9703228\H,0,-7.629
 3603,5.5978213,-0.5565844\H,0,-4.2178167,-5.67632,-0.2207339\H,0,-2.30
 83901,-6.6605695,0.0946442\\Version=ES64L-G16RevC.01\State=1-A\HF=-104
 3.9265699\MP2=-1047.2477759\RMSD=5.083e-09\Dipole=1.5521322,-2.344724,
 -0.0978869\Polar=299.5083315,-99.3217672,466.3714107,17.2101646,-31.95
 30971,81.2848003\HyperPolar=-1735.1740842,2488.1741599,-3743.0672559,6
 833.7756387,-268.6643242,412.465222,-727.6176571,-37.1136824,64.078654
 2,-5.8912472\DQPolar=93.8729969,-26.5967977,-67.2761992,-105.2681908,1
 0.2449138,19.813514,51.5843724,-173.7854063,122.2010339,115.3717736,49
 .0409423,-66.2071632,44.2292604,-93.2101866,48.9809262,43.5298603,39.9
 317689,-53.8243824\Quadrupole=-6.2942271,11.9668169,-5.6725898,12.3112
 289,-3.5123119,4.8445374\PG=C01 [X(C20H13N1O3)]\\@
 The archive entry for this job was punched.


 IF YOU GET CONFUSED, LOGIC OUT YOUR DILEMMA

           --  PICKER X-RAY CORP.    DIGITAL PRINTER MANUAL CA. 1964
 Job cpu time:       9 days  4 hours 32 minutes 23.1 seconds.
 Elapsed time:       0 days 13 hours 49 minutes 38.3 seconds.
 File lengths (MBytes):  RWF= 186736 Int=      0 D2E=      0 Chk=     61 Scr=      1
 Normal termination of Gaussian 16 at Sat Aug 16 08:26:12 2025.
