38
* (null), Energy   -1000.0000000
C    -7.120688    2.887682   -0.262923    0.000007   -0.000011   -0.000220
C    -5.862910    3.532296   -0.263904    0.000001    0.000004    0.000016
C    -4.678852    2.826435   -0.164958    0.000008   -0.000013   -0.000207
C    -4.685026    1.418950   -0.058090    0.000029   -0.000059   -0.000765
C    -3.473371    0.666792    0.045020   -0.000042    0.000074    0.001006
C    -3.487438   -0.696261    0.148225   -0.000066    0.000098    0.001379
C    -4.709912   -1.448667    0.159280    0.000002   -0.000021   -0.000184
C    -4.734538   -2.880240    0.266808   -0.000068    0.000157    0.002397
C    -6.000789   -3.513464    0.266048   -0.000606    0.001178    0.015526
C    -7.184948   -2.805331    0.167559   -0.000246    0.000490    0.006432
C    -7.189172   -1.400281    0.061213    0.000024   -0.000058   -0.000901
C    -8.399606   -0.648735   -0.041981    0.000023   -0.000044   -0.000641
C    -8.393006    0.714402   -0.145590    0.000018   -0.000036   -0.000605
C    -7.165209    1.458879   -0.155415    0.000020   -0.000052   -0.000693
C    -5.932914    0.721615   -0.052266    0.000037   -0.000083   -0.001049
C    -5.939935   -0.710602    0.056466    0.000039   -0.000091   -0.001127
C    -8.345163    3.664859   -0.369525    0.000005    0.000007    0.000043
C    -3.504973   -3.655635    0.372219    0.001689   -0.003375   -0.044595
C    -8.460023    5.003556   -0.484420   -0.000006    0.000017    0.000115
C    -3.414283   -5.009351    0.479664    0.002903   -0.005840   -0.075925
N    -2.258638   -5.725554    0.577521   -0.010613    0.021923    0.283120
N    -9.770154    5.621135   -0.580997    0.000001   -0.000003    0.000018
O    -9.777569    6.843580   -0.683982   -0.000002   -0.000003   -0.000086
O   -10.773858    4.918177   -0.556163    0.000005   -0.000013   -0.000177
H    -5.820522    4.620251   -0.344336   -0.000029    0.000064    0.000804
H    -3.722441    3.355843   -0.168642   -0.000027    0.000057    0.000748
H    -2.522699    1.206934    0.039551   -0.000208    0.000412    0.005488
H    -2.533144   -1.216851    0.223617   -0.000403    0.000769    0.010278
H    -6.058262   -4.600795    0.345154   -0.001605    0.003020    0.040149
H    -8.139215   -3.339892    0.171267   -0.000521    0.001029    0.013613
H    -9.350354   -1.189516   -0.037099   -0.000030    0.000060    0.000732
H    -9.346216    1.236468   -0.221969   -0.000009    0.000020    0.000123
H    -9.302540    3.141391   -0.359318    0.000001    0.000017    0.000148
H    -2.559404   -3.109384    0.365685    0.001793   -0.003604   -0.047596
H    -7.665377    5.745502   -0.519537   -0.000017    0.000041    0.000383
H    -4.312384   -5.633745    0.494299    0.003512   -0.007054   -0.091367
H    -2.274153   -6.731272    0.655221    0.064017   -0.134093   -1.722962
H    -1.355865   -5.269172    0.576297    0.035999   -0.073808   -0.949251
38
* Frequency(6) -221.3959
C    -7.120687    2.887680   -0.262948    0.000007   -0.000011   -0.000220
C    -5.862910    3.532296   -0.263902    0.000001    0.000004    0.000016
C    -4.678852    2.826434   -0.164981    0.000008   -0.000013   -0.000207
C    -4.685023    1.418944   -0.058177    0.000029   -0.000059   -0.000765
C    -3.473376    0.666800    0.045134   -0.000042    0.000074    0.001006
C    -3.487445   -0.696250    0.148381   -0.000066    0.000098    0.001379
C    -4.709911   -1.448670    0.159259    0.000002   -0.000021   -0.000184
C    -4.734546   -2.880222    0.267081   -0.000068    0.000157    0.002397
C    -6.000858   -3.513330    0.267812   -0.000606    0.001178    0.015526
C    -7.184975   -2.805275    0.168290   -0.000246    0.000490    0.006432
C    -7.189169   -1.400287    0.061111    0.000024   -0.000058   -0.000901
C    -8.399603   -0.648740   -0.042054    0.000023   -0.000044   -0.000641
C    -8.393004    0.714398   -0.145659    0.000018   -0.000036   -0.000605
C    -7.165207    1.458873   -0.155494    0.000020   -0.000052   -0.000693
C    -5.932909    0.721606   -0.052385    0.000037   -0.000083   -0.001049
C    -5.939930   -0.710612    0.056338    0.000039   -0.000091   -0.001127
C    -8.345162    3.664859   -0.369521    0.000005    0.000007    0.000043
C    -3.504781   -3.656019    0.367151    0.001689   -0.003375   -0.044595
C    -8.460024    5.003557   -0.484407   -0.000006    0.000017    0.000115
C    -3.413953   -5.010015    0.471036    0.002903   -0.005840   -0.075925
N    -2.259844   -5.723062    0.609696   -0.010613    0.021923    0.283120
N    -9.770154    5.621134   -0.580995    0.000001   -0.000003    0.000018
O    -9.777569    6.843579   -0.683992   -0.000002   -0.000003   -0.000086
O   -10.773857    4.918176   -0.556183    0.000005   -0.000013   -0.000177
H    -5.820526    4.620258   -0.344245   -0.000029    0.000064    0.000804
H    -3.722444    3.355850   -0.168557   -0.000027    0.000057    0.000748
H    -2.522722    1.206981    0.040175   -0.000208    0.000412    0.005488
H    -2.533190   -1.216764    0.224785   -0.000403    0.000769    0.010278
H    -6.058444   -4.600452    0.349717   -0.001605    0.003020    0.040149
H    -8.139274   -3.339775    0.172814   -0.000521    0.001029    0.013613
H    -9.350357   -1.189509   -0.037016   -0.000030    0.000060    0.000732
H    -9.346217    1.236471   -0.221955   -0.000009    0.000020    0.000123
H    -9.302540    3.141393   -0.359301    0.000001    0.000017    0.000148
H    -2.559200   -3.109794    0.360276    0.001793   -0.003604   -0.047596
H    -7.665379    5.745507   -0.519493   -0.000017    0.000041    0.000383
H    -4.311985   -5.634547    0.483915    0.003512   -0.007054   -0.091367
H    -2.266878   -6.746511    0.459415    0.064017   -0.134093   -1.722962
H    -1.351773   -5.277559    0.468419    0.035999   -0.073808   -0.949251
38
* Frequency(6) -221.3959
C    -7.120686    2.887679   -0.262971    0.000007   -0.000011   -0.000220
C    -5.862909    3.532297   -0.263900    0.000001    0.000004    0.000016
C    -4.678851    2.826432   -0.165002    0.000008   -0.000013   -0.000207
C    -4.685020    1.418938   -0.058254    0.000029   -0.000059   -0.000765
C    -3.473380    0.666807    0.045236   -0.000042    0.000074    0.001006
C    -3.487452   -0.696240    0.148521   -0.000066    0.000098    0.001379
C    -4.709911   -1.448672    0.159240    0.000002   -0.000021   -0.000184
C    -4.734552   -2.880206    0.267323   -0.000068    0.000157    0.002397
C    -6.000920   -3.513211    0.269385   -0.000606    0.001178    0.015526
C    -7.185000   -2.805226    0.168942   -0.000246    0.000490    0.006432
C    -7.189167   -1.400293    0.061020    0.000024   -0.000058   -0.000901
C    -8.399601   -0.648744   -0.042119    0.000023   -0.000044   -0.000641
C    -8.393003    0.714395   -0.145720    0.000018   -0.000036   -0.000605
C    -7.165205    1.458867   -0.155564    0.000020   -0.000052   -0.000693
C    -5.932906    0.721597   -0.052492    0.000037   -0.000083   -0.001049
C    -5.939926   -0.710621    0.056223    0.000039   -0.000091   -0.001127
C    -8.345161    3.664860   -0.369516    0.000005    0.000007    0.000043
C    -3.504610   -3.656361    0.362632    0.001689   -0.003375   -0.044595
C    -8.460025    5.003559   -0.484395   -0.000006    0.000017    0.000115
C    -3.413658   -5.010607    0.463343    0.002903   -0.005840   -0.075925
N    -2.260920   -5.720841    0.638385   -0.010613    0.021923    0.283120
N    -9.770154    5.621134   -0.580993    0.000001   -0.000003    0.000018
O    -9.777569    6.843579   -0.684000   -0.000002   -0.000003   -0.000086
O   -10.773857    4.918175   -0.556201    0.000005   -0.000013   -0.000177
H    -5.820529    4.620264   -0.344163   -0.000029    0.000064    0.000804
H    -3.722447    3.355856   -0.168482   -0.000027    0.000057    0.000748
H    -2.522743    1.207023    0.040731   -0.000208    0.000412    0.005488
H    -2.533231   -1.216686    0.225827   -0.000403    0.000769    0.010278
H    -6.058607   -4.600146    0.353786   -0.001605    0.003020    0.040149
H    -8.139327   -3.339671    0.174194   -0.000521    0.001029    0.013613
H    -9.350360   -1.189503   -0.036941   -0.000030    0.000060    0.000732
H    -9.346218    1.236473   -0.221943   -0.000009    0.000020    0.000123
H    -9.302540    3.141394   -0.359286    0.000001    0.000017    0.000148
H    -2.559018   -3.110159    0.355453    0.001793   -0.003604   -0.047596
H    -7.665381    5.745511   -0.519454   -0.000017    0.000041    0.000383
H    -4.311629   -5.635262    0.474657    0.003512   -0.007054   -0.091367
H    -2.260391   -6.760099    0.284828    0.064017   -0.134093   -1.722962
H    -1.348126   -5.285038    0.372232    0.035999   -0.073808   -0.949251
38
* Frequency(6) -221.3959
C    -7.120686    2.887678   -0.262988    0.000007   -0.000011   -0.000220
C    -5.862909    3.532297   -0.263899    0.000001    0.000004    0.000016
C    -4.678850    2.826431   -0.165018    0.000008   -0.000013   -0.000207
C    -4.685018    1.418933   -0.058314    0.000029   -0.000059   -0.000765
C    -3.473384    0.666813    0.045315   -0.000042    0.000074    0.001006
C    -3.487457   -0.696232    0.148629   -0.000066    0.000098    0.001379
C    -4.709911   -1.448673    0.159226    0.000002   -0.000021   -0.000184
C    -4.734558   -2.880194    0.267510   -0.000068    0.000157    0.002397
C    -6.000967   -3.513119    0.270597   -0.000606    0.001178    0.015526
C    -7.185020   -2.805187    0.169444   -0.000246    0.000490    0.006432
C    -7.189165   -1.400298    0.060949    0.000024   -0.000058   -0.000901
C    -8.399599   -0.648748   -0.042169    0.000023   -0.000044   -0.000641
C    -8.393001    0.714392   -0.145767    0.000018   -0.000036   -0.000605
C    -7.165203    1.458863   -0.155618    0.000020   -0.000052   -0.000693
C    -5.932903    0.721591   -0.052574    0.000037   -0.000083   -0.001049
C    -5.939923   -0.710628    0.056135    0.000039   -0.000091   -0.001127
C    -8.345161    3.664861   -0.369513    0.000005    0.000007    0.000043
C    -3.504478   -3.656624    0.359153    0.001689   -0.003375   -0.044595
C    -8.460025    5.003561   -0.484386   -0.000006    0.000017    0.000115
C    -3.413432   -5.011062    0.457418    0.002903   -0.005840   -0.075925
N    -2.261748   -5.719130    0.660478   -0.010613    0.021923    0.283120
N    -9.770154    5.621134   -0.580992    0.000001   -0.000003    0.000018
O    -9.777569    6.843579   -0.684007   -0.000002   -0.000003   -0.000086
O   -10.773856    4.918174   -0.556215    0.000005   -0.000013   -0.000177
H    -5.820531    4.620269   -0.344101   -0.000029    0.000064    0.000804
H    -3.722449    3.355860   -0.168423   -0.000027    0.000057    0.000748
H    -2.522760    1.207055    0.041159   -0.000208    0.000412    0.005488
H    -2.533262   -1.216626    0.226629   -0.000403    0.000769    0.010278
H    -6.058732   -4.599910    0.356919   -0.001605    0.003020    0.040149
H    -8.139367   -3.339591    0.175256   -0.000521    0.001029    0.013613
H    -9.350363   -1.189498   -0.036884   -0.000030    0.000060    0.000732
H    -9.346219    1.236474   -0.221933   -0.000009    0.000020    0.000123
H    -9.302540    3.141396   -0.359274    0.000001    0.000017    0.000148
H    -2.558878   -3.110440    0.351739    0.001793   -0.003604   -0.047596
H    -7.665382    5.745514   -0.519425   -0.000017    0.000041    0.000383
H    -4.311355   -5.635812    0.467527    0.003512   -0.007054   -0.091367
H    -2.255396   -6.770563    0.150379    0.064017   -0.134093   -1.722962
H    -1.345316   -5.290798    0.298158    0.035999   -0.073808   -0.949251
38
* Frequency(6) -221.3959
C    -7.120685    2.887678   -0.262998    0.000007   -0.000011   -0.000220
C    -5.862909    3.532297   -0.263898    0.000001    0.000004    0.000016
C    -4.678850    2.826431   -0.165028    0.000008   -0.000013   -0.000207
C    -4.685016    1.418930   -0.058349    0.000029   -0.000059   -0.000765
C    -3.473386    0.666817    0.045361   -0.000042    0.000074    0.001006
C    -3.487460   -0.696228    0.148693   -0.000066    0.000098    0.001379
C    -4.709911   -1.448674    0.159217    0.000002   -0.000021   -0.000184
C    -4.734561   -2.880187    0.267621   -0.000068    0.000157    0.002397
C    -6.000995   -3.513064    0.271315   -0.000606    0.001178    0.015526
C    -7.185031   -2.805165    0.169742   -0.000246    0.000490    0.006432
C    -7.189164   -1.400300    0.060908    0.000024   -0.000058   -0.000901
C    -8.399598   -0.648750   -0.042198    0.000023   -0.000044   -0.000641
C    -8.393000    0.714390   -0.145795    0.000018   -0.000036   -0.000605
C    -7.165202    1.458861   -0.155651    0.000020   -0.000052   -0.000693
C    -5.932901    0.721587   -0.052622    0.000037   -0.000083   -0.001049
C    -5.939922   -0.710633    0.056083    0.000039   -0.000091   -0.001127
C    -8.345161    3.664861   -0.369511    0.000005    0.000007    0.000043
C    -3.504400   -3.656781    0.357089    0.001689   -0.003375   -0.044595
C    -8.460025    5.003561   -0.484381   -0.000006    0.000017    0.000115
C    -3.413298   -5.011333    0.453904    0.002903   -0.005840   -0.075925
N    -2.262239   -5.718115    0.673581   -0.010613    0.021923    0.283120
N    -9.770154    5.621134   -0.580991    0.000001   -0.000003    0.000018
O    -9.777569    6.843579   -0.684011   -0.000002   -0.000003   -0.000086
O   -10.773856    4.918173   -0.556223    0.000005   -0.000013   -0.000177
H    -5.820532    4.620272   -0.344063   -0.000029    0.000064    0.000804
H    -3.722450    3.355863   -0.168389   -0.000027    0.000057    0.000748
H    -2.522769    1.207074    0.041413   -0.000208    0.000412    0.005488
H    -2.533281   -1.216590    0.227104   -0.000403    0.000769    0.010278
H    -6.058807   -4.599770    0.358777   -0.001605    0.003020    0.040149
H    -8.139392   -3.339543    0.175886   -0.000521    0.001029    0.013613
H    -9.350364   -1.189495   -0.036851   -0.000030    0.000060    0.000732
H    -9.346219    1.236475   -0.221927   -0.000009    0.000020    0.000123
H    -9.302540    3.141396   -0.359267    0.000001    0.000017    0.000148
H    -2.558795   -3.110607    0.349536    0.001793   -0.003604   -0.047596
H    -7.665383    5.745516   -0.519407   -0.000017    0.000041    0.000383
H    -4.311192   -5.636139    0.463299    0.003512   -0.007054   -0.091367
H    -2.252433   -6.776769    0.070637    0.064017   -0.134093   -1.722962
H    -1.343650   -5.294214    0.254225    0.035999   -0.073808   -0.949251
38
* Frequency(6) -221.3959
C    -7.120685    2.887678   -0.263000    0.000007   -0.000011   -0.000220
C    -5.862909    3.532297   -0.263898    0.000001    0.000004    0.000016
C    -4.678850    2.826430   -0.165030    0.000008   -0.000013   -0.000207
C    -4.685016    1.418930   -0.058357    0.000029   -0.000059   -0.000765
C    -3.473386    0.666817    0.045371   -0.000042    0.000074    0.001006
C    -3.487461   -0.696227    0.148706   -0.000066    0.000098    0.001379
C    -4.709911   -1.448675    0.159215    0.000002   -0.000021   -0.000184
C    -4.734562   -2.880185    0.267644   -0.000068    0.000157    0.002397
C    -6.001001   -3.513053    0.271463   -0.000606    0.001178    0.015526
C    -7.185033   -2.805160    0.169803   -0.000246    0.000490    0.006432
C    -7.189164   -1.400301    0.060899    0.000024   -0.000058   -0.000901
C    -8.399598   -0.648750   -0.042205    0.000023   -0.000044   -0.000641
C    -8.393000    0.714390   -0.145801    0.000018   -0.000036   -0.000605
C    -7.165202    1.458860   -0.155657    0.000020   -0.000052   -0.000693
C    -5.932901    0.721586   -0.052632    0.000037   -0.000083   -0.001049
C    -5.939921   -0.710634    0.056072    0.000039   -0.000091   -0.001127
C    -8.345161    3.664861   -0.369510    0.000005    0.000007    0.000043
C    -3.504384   -3.656813    0.356664    0.001689   -0.003375   -0.044595
C    -8.460026    5.003562   -0.484380   -0.000006    0.000017    0.000115
C    -3.413270   -5.011388    0.453181    0.002903   -0.005840   -0.075925
N    -2.262340   -5.717907    0.676275   -0.010613    0.021923    0.283120
N    -9.770154    5.621134   -0.580991    0.000001   -0.000003    0.000018
O    -9.777569    6.843579   -0.684012   -0.000002   -0.000003   -0.000086
O   -10.773856    4.918173   -0.556225    0.000005   -0.000013   -0.000177
H    -5.820533    4.620273   -0.344056   -0.000029    0.000064    0.000804
H    -3.722450    3.355863   -0.168382   -0.000027    0.000057    0.000748
H    -2.522771    1.207078    0.041465   -0.000208    0.000412    0.005488
H    -2.533285   -1.216583    0.227202   -0.000403    0.000769    0.010278
H    -6.058822   -4.599741    0.359159   -0.001605    0.003020    0.040149
H    -8.139397   -3.339533    0.176015   -0.000521    0.001029    0.013613
H    -9.350364   -1.189495   -0.036844   -0.000030    0.000060    0.000732
H    -9.346219    1.236475   -0.221926   -0.000009    0.000020    0.000123
H    -9.302540    3.141397   -0.359266    0.000001    0.000017    0.000148
H    -2.558778   -3.110641    0.349084    0.001793   -0.003604   -0.047596
H    -7.665383    5.745516   -0.519403   -0.000017    0.000041    0.000383
H    -4.311159   -5.636206    0.462430    0.003512   -0.007054   -0.091367
H    -2.251824   -6.778044    0.054244    0.064017   -0.134093   -1.722962
H    -1.343308   -5.294916    0.245193    0.035999   -0.073808   -0.949251
38
* Frequency(6) -221.3959
C    -7.120686    2.887678   -0.262994    0.000007   -0.000011   -0.000220
C    -5.862909    3.532297   -0.263899    0.000001    0.000004    0.000016
C    -4.678850    2.826431   -0.165024    0.000008   -0.000013   -0.000207
C    -4.685017    1.418931   -0.058335    0.000029   -0.000059   -0.000765
C    -3.473385    0.666815    0.045342   -0.000042    0.000074    0.001006
C    -3.487459   -0.696229    0.148667   -0.000066    0.000098    0.001379
C    -4.709911   -1.448674    0.159221    0.000002   -0.000021   -0.000184
C    -4.734560   -2.880190    0.267576   -0.000068    0.000157    0.002397
C    -6.000984   -3.513087    0.271024   -0.000606    0.001178    0.015526
C    -7.185026   -2.805174    0.169621   -0.000246    0.000490    0.006432
C    -7.189164   -1.400299    0.060925    0.000024   -0.000058   -0.000901
C    -8.399599   -0.648749   -0.042186    0.000023   -0.000044   -0.000641
C    -8.393001    0.714391   -0.145784    0.000018   -0.000036   -0.000605
C    -7.165202    1.458862   -0.155638    0.000020   -0.000052   -0.000693
C    -5.932902    0.721589   -0.052602    0.000037   -0.000083   -0.001049
C    -5.939922   -0.710631    0.056104    0.000039   -0.000091   -0.001127
C    -8.345161    3.664861   -0.369512    0.000005    0.000007    0.000043
C    -3.504432   -3.656717    0.357926    0.001689   -0.003375   -0.044595
C    -8.460025    5.003561   -0.484383   -0.000006    0.000017    0.000115
C    -3.413352   -5.011223    0.455329    0.002903   -0.005840   -0.075925
N    -2.262040   -5.718527    0.668267   -0.010613    0.021923    0.283120
N    -9.770154    5.621134   -0.580991    0.000001   -0.000003    0.000018
O    -9.777569    6.843579   -0.684010   -0.000002   -0.000003   -0.000086
O   -10.773856    4.918173   -0.556220    0.000005   -0.000013   -0.000177
H    -5.820532    4.620271   -0.344078   -0.000029    0.000064    0.000804
H    -3.722450    3.355862   -0.168403   -0.000027    0.000057    0.000748
H    -2.522765    1.207066    0.041310   -0.000208    0.000412    0.005488
H    -2.533273   -1.216605    0.226911   -0.000403    0.000769    0.010278
H    -6.058776   -4.599827    0.358023   -0.001605    0.003020    0.040149
H    -8.139382   -3.339562    0.175630   -0.000521    0.001029    0.013613
H    -9.350363   -1.189496   -0.036864   -0.000030    0.000060    0.000732
H    -9.346219    1.236475   -0.221930   -0.000009    0.000020    0.000123
H    -9.302540    3.141396   -0.359270    0.000001    0.000017    0.000148
H    -2.558829   -3.110539    0.350430    0.001793   -0.003604   -0.047596
H    -7.665383    5.745515   -0.519414   -0.000017    0.000041    0.000383
H    -4.311258   -5.636006    0.465014    0.003512   -0.007054   -0.091367
H    -2.253634   -6.774252    0.102976    0.064017   -0.134093   -1.722962
H    -1.344326   -5.292829    0.272042    0.035999   -0.073808   -0.949251
38
* Frequency(6) -221.3959
C    -7.120686    2.887679   -0.262980    0.000007   -0.000011   -0.000220
C    -5.862909    3.532297   -0.263900    0.000001    0.000004    0.000016
C    -4.678850    2.826432   -0.165011    0.000008   -0.000013   -0.000207
C    -4.685019    1.418935   -0.058287    0.000029   -0.000059   -0.000765
C    -3.473382    0.666811    0.045279   -0.000042    0.000074    0.001006
C    -3.487455   -0.696236    0.148580   -0.000066    0.000098    0.001379
C    -4.709911   -1.448673    0.159232    0.000002   -0.000021   -0.000184
C    -4.734555   -2.880200    0.267425   -0.000068    0.000157    0.002397
C    -6.000946   -3.513161    0.270046   -0.000606    0.001178    0.015526
C    -7.185011   -2.805205    0.169216   -0.000246    0.000490    0.006432
C    -7.189166   -1.400296    0.060981    0.000024   -0.000058   -0.000901
C    -8.399600   -0.648746   -0.042146    0.000023   -0.000044   -0.000641
C    -8.393002    0.714393   -0.145746    0.000018   -0.000036   -0.000605
C    -7.165204    1.458865   -0.155594    0.000020   -0.000052   -0.000693
C    -5.932904    0.721594   -0.052536    0.000037   -0.000083   -0.001049
C    -5.939925   -0.710625    0.056175    0.000039   -0.000091   -0.001127
C    -8.345161    3.664860   -0.369514    0.000005    0.000007    0.000043
C    -3.504538   -3.656505    0.360736    0.001689   -0.003375   -0.044595
C    -8.460025    5.003560   -0.484391   -0.000006    0.000017    0.000115
C    -3.413535   -5.010855    0.460114    0.002903   -0.005840   -0.075925
N    -2.261371   -5.719908    0.650425   -0.010613    0.021923    0.283120
N    -9.770154    5.621134   -0.580992    0.000001   -0.000003    0.000018
O    -9.777569    6.843579   -0.684004   -0.000002   -0.000003   -0.000086
O   -10.773856    4.918174   -0.556208    0.000005   -0.000013   -0.000177
H    -5.820530    4.620267   -0.344129   -0.000029    0.000064    0.000804
H    -3.722448    3.355858   -0.168450   -0.000027    0.000057    0.000748
H    -2.522752    1.207040    0.040964   -0.000208    0.000412    0.005488
H    -2.533248   -1.216653    0.226264   -0.000403    0.000769    0.010278
H    -6.058675   -4.600017    0.355493   -0.001605    0.003020    0.040149
H    -8.139349   -3.339627    0.174773   -0.000521    0.001029    0.013613
H    -9.350361   -1.189500   -0.036910   -0.000030    0.000060    0.000732
H    -9.346218    1.236473   -0.221938   -0.000009    0.000020    0.000123
H    -9.302540    3.141395   -0.359280    0.000001    0.000017    0.000148
H    -2.558942   -3.110312    0.353429    0.001793   -0.003604   -0.047596
H    -7.665382    5.745513   -0.519438   -0.000017    0.000041    0.000383
H    -4.311480   -5.635562    0.470771    0.003512   -0.007054   -0.091367
H    -2.257669   -6.765802    0.211552    0.064017   -0.134093   -1.722962
H    -1.346595   -5.288177    0.331861    0.035999   -0.073808   -0.949251
38
* Frequency(6) -221.3959
C    -7.120687    2.887680   -0.262960    0.000007   -0.000011   -0.000220
C    -5.862910    3.532297   -0.263901    0.000001    0.000004    0.000016
C    -4.678851    2.826433   -0.164992    0.000008   -0.000013   -0.000207
C    -4.685021    1.418941   -0.058217    0.000029   -0.000059   -0.000765
C    -3.473378    0.666804    0.045188   -0.000042    0.000074    0.001006
C    -3.487449   -0.696244    0.148455   -0.000066    0.000098    0.001379
C    -4.709911   -1.448671    0.159249    0.000002   -0.000021   -0.000184
C    -4.734549   -2.880214    0.267207   -0.000068    0.000157    0.002397
C    -6.000890   -3.513268    0.268634   -0.000606    0.001178    0.015526
C    -7.184988   -2.805249    0.168631   -0.000246    0.000490    0.006432
C    -7.189168   -1.400290    0.061063    0.000024   -0.000058   -0.000901
C    -8.399602   -0.648742   -0.042088    0.000023   -0.000044   -0.000641
C    -8.393003    0.714396   -0.145691    0.000018   -0.000036   -0.000605
C    -7.165206    1.458870   -0.155531    0.000020   -0.000052   -0.000693
C    -5.932907    0.721601   -0.052441    0.000037   -0.000083   -0.001049
C    -5.939928   -0.710617    0.056278    0.000039   -0.000091   -0.001127
C    -8.345162    3.664860   -0.369518    0.000005    0.000007    0.000043
C    -3.504692   -3.656198    0.364791    0.001689   -0.003375   -0.044595
C    -8.460024    5.003558   -0.484401   -0.000006    0.000017    0.000115
C    -3.413799   -5.010324    0.467017    0.002903   -0.005840   -0.075925
N    -2.260406   -5.721902    0.624684   -0.010613    0.021923    0.283120
N    -9.770154    5.621134   -0.580994    0.000001   -0.000003    0.000018
O    -9.777569    6.843579   -0.683996   -0.000002   -0.000003   -0.000086
O   -10.773857    4.918175   -0.556192    0.000005   -0.000013   -0.000177
H    -5.820527    4.620261   -0.344202   -0.000029    0.000064    0.000804
H    -3.722446    3.355853   -0.168518   -0.000027    0.000057    0.000748
H    -2.522733    1.207003    0.040465   -0.000208    0.000412    0.005488
H    -2.533211   -1.216723    0.225329   -0.000403    0.000769    0.010278
H    -6.058529   -4.600292    0.351843   -0.001605    0.003020    0.040149
H    -8.139302   -3.339721    0.173535   -0.000521    0.001029    0.013613
H    -9.350359   -1.189506   -0.036977   -0.000030    0.000060    0.000732
H    -9.346217    1.236472   -0.221949   -0.000009    0.000020    0.000123
H    -9.302540    3.141394   -0.359293    0.000001    0.000017    0.000148
H    -2.559105   -3.109984    0.357757    0.001793   -0.003604   -0.047596
H    -7.665380    5.745509   -0.519473   -0.000017    0.000041    0.000383
H    -4.311799   -5.634920    0.479079    0.003512   -0.007054   -0.091367
H    -2.263489   -6.753610    0.368207    0.064017   -0.134093   -1.722962
H    -1.349868   -5.281467    0.418169    0.035999   -0.073808   -0.949251
38
* Frequency(6) -221.3959
C    -7.120687    2.887681   -0.262936    0.000007   -0.000011   -0.000220
C    -5.862910    3.532296   -0.263903    0.000001    0.000004    0.000016
C    -4.678852    2.826434   -0.164969    0.000008   -0.000013   -0.000207
C    -4.685024    1.418947   -0.058134    0.000029   -0.000059   -0.000765
C    -3.473374    0.666796    0.045078   -0.000042    0.000074    0.001006
C    -3.487442   -0.696255    0.148304   -0.000066    0.000098    0.001379
C    -4.709912   -1.448668    0.159269    0.000002   -0.000021   -0.000184
C    -4.734542   -2.880231    0.266946   -0.000068    0.000157    0.002397
C    -6.000824   -3.513396    0.266942   -0.000606    0.001178    0.015526
C    -7.184962   -2.805303    0.167930   -0.000246    0.000490    0.006432
C    -7.189171   -1.400284    0.061161    0.000024   -0.000058   -0.000901
C    -8.399605   -0.648738   -0.042018    0.000023   -0.000044   -0.000641
C    -8.393005    0.714400   -0.145625    0.000018   -0.000036   -0.000605
C    -7.165208    1.458876   -0.155455    0.000020   -0.000052   -0.000693
C    -5.932911    0.721610   -0.052327    0.000037   -0.000083   -0.001049
C    -5.939932   -0.710607    0.056401    0.000039   -0.000091   -0.001127
C    -8.345162    3.664859   -0.369523    0.000005    0.000007    0.000043
C    -3.504876   -3.655830    0.369650    0.001689   -0.003375   -0.044595
C    -8.460024    5.003557   -0.484413   -0.000006    0.000017    0.000115
C    -3.414115   -5.009688    0.475291    0.002903   -0.005840   -0.075925
N    -2.259249   -5.724291    0.593831   -0.010613    0.021923    0.283120
N    -9.770154    5.621135   -0.580996    0.000001   -0.000003    0.000018
O    -9.777569    6.843580   -0.683987   -0.000002   -0.000003   -0.000086
O   -10.773857    4.918177   -0.556173    0.000005   -0.000013   -0.000177
H    -5.820524    4.620254   -0.344290   -0.000029    0.000064    0.000804
H    -3.722443    3.355847   -0.168599   -0.000027    0.000057    0.000748
H    -2.522711    1.206958    0.039867   -0.000208    0.000412    0.005488
H    -2.533167   -1.216807    0.224209   -0.000403    0.000769    0.010278
H    -6.058354   -4.600621    0.347467   -0.001605    0.003020    0.040149
H    -8.139245   -3.339833    0.172051   -0.000521    0.001029    0.013613
H    -9.350355   -1.189512   -0.037057   -0.000030    0.000060    0.000732
H    -9.346216    1.236469   -0.221962   -0.000009    0.000020    0.000123
H    -9.302540    3.141392   -0.359309    0.000001    0.000017    0.000148
H    -2.559301   -3.109592    0.362943    0.001793   -0.003604   -0.047596
H    -7.665378    5.745505   -0.519515   -0.000017    0.000041    0.000383
H    -4.312181   -5.634152    0.489035    0.003512   -0.007054   -0.091367
H    -2.270465   -6.738997    0.555964    0.064017   -0.134093   -1.722962
H    -1.353791   -5.273424    0.521612    0.035999   -0.073808   -0.949251
38
* Frequency(6) -221.3959
C    -7.120688    2.887682   -0.262911    0.000007   -0.000011   -0.000220
C    -5.862910    3.532296   -0.263905    0.000001    0.000004    0.000016
C    -4.678853    2.826436   -0.164946    0.000008   -0.000013   -0.000207
C    -4.685028    1.418954   -0.058046    0.000029   -0.000059   -0.000765
C    -3.473369    0.666787    0.044962   -0.000042    0.000074    0.001006
C    -3.487434   -0.696266    0.148145   -0.000066    0.000098    0.001379
C    -4.709912   -1.448666    0.159290    0.000002   -0.000021   -0.000184
C    -4.734534   -2.880249    0.266670   -0.000068    0.000157    0.002397
C    -6.000755   -3.513532    0.265153   -0.000606    0.001178    0.015526
C    -7.184933   -2.805359    0.167189   -0.000246    0.000490    0.006432
C    -7.189173   -1.400277    0.061265    0.000024   -0.000058   -0.000901
C    -8.399607   -0.648732   -0.041944    0.000023   -0.000044   -0.000641
C    -8.393007    0.714404   -0.145555    0.000018   -0.000036   -0.000605
C    -7.165210    1.458882   -0.155375    0.000020   -0.000052   -0.000693
C    -5.932916    0.721620   -0.052206    0.000037   -0.000083   -0.001049