Start Job  on nano03

                                 *****************
                                 * O   R   C   A *
                                 *****************

                                            #,                                       
                                            ###                                      
                                            ####                                     
                                            #####                                    
                                            ######                                   
                                           ########,                                 
                                     ,,################,,,,,                         
                               ,,#################################,,                 
                          ,,##########################################,,             
                       ,#########################################, ''#####,          
                    ,#############################################,,   '####,        
                  ,##################################################,,,,####,       
                ,###########''''           ''''###############################       
              ,#####''   ,,,,##########,,,,          '''####'''          '####       
            ,##' ,,,,###########################,,,                        '##       
           ' ,,###''''                  '''############,,,                           
         ,,##''                                '''############,,,,        ,,,,,,###''
      ,#''                                            '''#######################'''  
     '                                                          ''''####''''         
             ,#######,   #######,   ,#######,      ##                                
            ,#'     '#,  ##    ##  ,#'     '#,    #''#        ######   ,####,        
            ##       ##  ##   ,#'  ##            #'  '#       #        #'  '#        
            ##       ##  #######   ##           ,######,      #####,   #    #        
            '#,     ,#'  ##    ##  '#,     ,#' ,#      #,         ##   #,  ,#        
             '#######'   ##     ##  '#######'  #'      '#     #####' # '####'        



                  #######################################################
                  #                        -***-                        #
                  #          Department of theory and spectroscopy      #
                  #    Directorship and core code : Frank Neese         #
                  #        Max Planck Institute fuer Kohlenforschung    #
                  #                Kaiser Wilhelm Platz 1               #
                  #                 D-45470 Muelheim/Ruhr               #
                  #                      Germany                        #
                  #                                                     #
                  #                  All rights reserved                #
                  #                        -***-                        #
                  #######################################################


                         Program Version 5.0.4 -  RELEASE  -


 With contributions from (in alphabetic order):
   Daniel Aravena         : Magnetic Suceptibility
   Michael Atanasov       : Ab Initio Ligand Field Theory (pilot matlab implementation)
   Alexander A. Auer      : GIAO ZORA, VPT2 properties, NMR spectrum
   Ute Becker             : Parallelization
   Giovanni Bistoni       : ED, misc. LED, open-shell LED, HFLD
   Martin Brehm           : Molecular dynamics
   Dmytro Bykov           : SCF Hessian
   Vijay G. Chilkuri      : MRCI spin determinant printing, contributions to CSF-ICE
   Dipayan Datta          : RHF DLPNO-CCSD density
   Achintya Kumar Dutta   : EOM-CC, STEOM-CC
   Dmitry Ganyushin       : Spin-Orbit,Spin-Spin,Magnetic field MRCI
   Miquel Garcia          : C-PCM and meta-GGA Hessian, CC/C-PCM, Gaussian charge scheme
   Yang Guo               : DLPNO-NEVPT2, F12-NEVPT2, CIM, IAO-localization
   Andreas Hansen         : Spin unrestricted coupled pair/coupled cluster methods
   Benjamin Helmich-Paris : MC-RPA, TRAH-SCF, COSX integrals
   Lee Huntington         : MR-EOM, pCC
   Robert Izsak           : Overlap fitted RIJCOSX, COSX-SCS-MP3, EOM
   Marcus Kettner         : VPT2
   Christian Kollmar      : KDIIS, OOCD, Brueckner-CCSD(T), CCSD density, CASPT2, CASPT2-K
   Simone Kossmann        : Meta GGA functionals, TD-DFT gradient, OOMP2, MP2 Hessian
   Martin Krupicka        : Initial AUTO-CI
   Lucas Lang             : DCDCAS
   Marvin Lechner         : AUTO-CI (C++ implementation), FIC-MRCC
   Dagmar Lenk            : GEPOL surface, SMD
   Dimitrios Liakos       : Extrapolation schemes; Compound Job, initial MDCI parallelization
   Dimitrios Manganas     : Further ROCIS development; embedding schemes
   Dimitrios Pantazis     : SARC Basis sets
   Anastasios Papadopoulos: AUTO-CI, single reference methods and gradients
   Taras Petrenko         : DFT Hessian,TD-DFT gradient, ASA, ECA, R-Raman, ABS, FL, XAS/XES, NRVS
   Peter Pinski           : DLPNO-MP2, DLPNO-MP2 Gradient
   Christoph Reimann      : Effective Core Potentials
   Marius Retegan         : Local ZFS, SOC
   Christoph Riplinger    : Optimizer, TS searches, QM/MM, DLPNO-CCSD(T), (RO)-DLPNO pert. Triples
   Tobias Risthaus        : Range-separated hybrids, TD-DFT gradient, RPA, STAB
   Michael Roemelt        : Original ROCIS implementation
   Masaaki Saitow         : Open-shell DLPNO-CCSD energy and density
   Barbara Sandhoefer     : DKH picture change effects
   Avijit Sen             : IP-ROCIS
   Kantharuban Sivalingam : CASSCF convergence, NEVPT2, FIC-MRCI
   Bernardo de Souza      : ESD, SOC TD-DFT
   Georgi Stoychev        : AutoAux, RI-MP2 NMR, DLPNO-MP2 response
   Willem Van den Heuvel  : Paramagnetic NMR
   Boris Wezisla          : Elementary symmetry handling
   Frank Wennmohs         : Technical directorship


 We gratefully acknowledge several colleagues who have allowed us to
 interface, adapt or use parts of their codes:
   Stefan Grimme, W. Hujo, H. Kruse, P. Pracht,  : VdW corrections, initial TS optimization,
                  C. Bannwarth, S. Ehlert          DFT functionals, gCP, sTDA/sTD-DF
   Ed Valeev, F. Pavosevic, A. Kumar             : LibInt (2-el integral package), F12 methods
   Garnet Chan, S. Sharma, J. Yang, R. Olivares  : DMRG
   Ulf Ekstrom                                   : XCFun DFT Library
   Mihaly Kallay                                 : mrcc  (arbitrary order and MRCC methods)
   Jiri Pittner, Ondrej Demel                    : Mk-CCSD
   Frank Weinhold                                : gennbo (NPA and NBO analysis)
   Christopher J. Cramer and Donald G. Truhlar   : smd solvation model
   Lars Goerigk                                  : TD-DFT with DH, B97 family of functionals
   V. Asgeirsson, H. Jonsson                     : NEB implementation
   FAccTs GmbH                                   : IRC, NEB, NEB-TS, DLPNO-Multilevel, CI-OPT
                                                   MM, QMMM, 2- and 3-layer-ONIOM, Crystal-QMMM,
                                                   LR-CPCM, SF, NACMEs, symmetry and pop. for TD-DFT,
                                                   nearIR, NL-DFT gradient (VV10), updates on ESD,
                                                   ML-optimized integration grids
   S Lehtola, MJT Oliveira, MAL Marques          : LibXC Library
   Liviu Ungur et al                             : ANISO software


 Your calculation uses the libint2 library for the computation of 2-el integrals
 For citations please refer to: http://libint.valeyev.net

 Your ORCA version has been built with support for libXC version: 5.1.0
 For citations please refer to: https://tddft.org/programs/libxc/

 This ORCA versions uses:
   CBLAS   interface :  Fast vector & matrix operations
   LAPACKE interface :  Fast linear algebra routines
   SCALAPACK package :  Parallel linear algebra routines
   Shared memory     :  Shared parallel matrices
   BLAS/LAPACK       :  OpenBLAS 0.3.15  USE64BITINT DYNAMIC_ARCH NO_AFFINITY Zen SINGLE_THREADED
        Core in use  :  Zen
   Copyright (c) 2011-2014, The OpenBLAS Project


================================================================================

----- Orbital basis set information -----
Your calculation utilizes the basis: def2-SVP
   F. Weigend and R. Ahlrichs, Phys. Chem. Chem. Phys. 7, 3297 (2005).

----- AuxJ basis set information -----
Your calculation utilizes the auxiliary basis: def2/J
   F. Weigend, Phys. Chem. Chem. Phys. 8, 1057 (2006).

================================================================================
                                        WARNINGS
                       Please study these warnings very carefully!
================================================================================


WARNING: Geometry Optimization
  ===> : Switching off AutoStart
         For restart on a previous wavefunction, please use MOREAD

INFO   : the flag for use of the SHARK integral package has been found!

================================================================================
                                       INPUT FILE
================================================================================
NAME = NO2_NH2.inp
|  1> ! B3LYP def2-SVP Opt PAL8 FREQ 
|  2> #defgrid3 slowconv VeryTightSCF
|  3> *xyz 0 1
|  4>   C   -7.124680    2.738264   -0.255765
|  5>   C   -5.923520    3.349613   -0.257371
|  6>   C   -4.776417    2.669970   -0.162584
|  7>   C   -4.796981    1.334931   -0.061303
|  8>   C   -3.638721    0.668810    0.033511
|  9>   C   -3.633823   -0.664679    0.136532
| 10>   C   -4.771317   -1.388092    0.149270
| 11>   C   -4.770883   -2.745842    0.254684
| 12>   C   -5.968669   -3.362797    0.255382
| 13>   C   -7.116233   -2.684200    0.158112
| 14>   C   -7.096362   -1.348812    0.056426
| 15>   C   -8.254144   -0.682486   -0.039364
| 16>   C   -8.258998    0.651192   -0.141208
| 17>   C   -7.123641    1.379011   -0.152856
| 18>   C   -5.967332    0.671169   -0.054916
| 19>   C   -5.927907   -0.681713    0.050301
| 20>   C   -8.247375    3.493677   -0.354049
| 21>   C   -3.652041   -3.503172    0.358008
| 22>   C   -8.374570    4.833184   -0.459494
| 23>   C   -3.549357   -4.839479    0.466465
| 24>   N   -2.424145   -5.416177    0.556365
| 25>   N   -9.473336    5.435730   -0.544580
| 26>   O   -9.504650    6.746315   -0.643979
| 27>   O  -10.645519    4.843550   -0.542156
| 28>   H   -5.796629    4.439206   -0.335313
| 29>   H   -3.823789    3.228232   -0.169090
| 30>   H   -2.673091    1.204699    0.028670
| 31>   H   -2.626572   -1.098229    0.208038
| 32>   H   -6.084938   -4.453961    0.335179
| 33>   H   -8.068037   -3.243687    0.164124
| 34>   H   -9.219420   -1.219135   -0.035687
| 35>   H   -9.268795    1.078542   -0.212855
| 36>   H   -9.221226    2.987170   -0.351218
| 37>   H   -2.662335   -3.023429    0.360162
| 38>   H   -7.480963    5.475282   -0.475291
| 39>   H   -4.377702   -5.558605    0.489696
| 40>   H   -2.363070   -6.460902    0.640457
| 41>   H   -1.538360   -4.853151    0.547696
| 42> **                         ****END OF INPUT****
================================================================================

                       *****************************
                       * Geometry Optimization Run *
                       *****************************

Geometry optimization settings:
Update method            Update   .... BFGS
Choice of coordinates    CoordSys .... Z-matrix Internals
Initial Hessian          InHess   .... Almoef's Model

Convergence Tolerances:
Energy Change            TolE     ....  5.0000e-06 Eh
Max. Gradient            TolMAXG  ....  3.0000e-04 Eh/bohr
RMS Gradient             TolRMSG  ....  1.0000e-04 Eh/bohr
Max. Displacement        TolMAXD  ....  4.0000e-03 bohr
RMS Displacement         TolRMSD  ....  2.0000e-03 bohr
Strict Convergence                ....  False
------------------------------------------------------------------------------
                        ORCA OPTIMIZATION COORDINATE SETUP
------------------------------------------------------------------------------

The optimization will be done in new redundant internal coordinates
Making redundant internal coordinates   ...  (new redundants) done
Evaluating the initial hessian          ...  (Almloef) done
Evaluating the coordinates              ...  done
Calculating the B-matrix                .... done
Calculating the G-matrix                .... done
Diagonalizing the G-matrix              .... done
Small eigenvalue found = 4.786e-03
Small eigenvalue found = 1.017e-02
Small eigenvalue found = 1.506e-02
The first mode is                       ....   99
The number of degrees of freedom        ....  108

    -----------------------------------------------------------------
                    Redundant Internal Coordinates


    -----------------------------------------------------------------
         Definition                    Initial Value    Approx d2E/dq
    -----------------------------------------------------------------
      1. B(C   1,C   0)                  1.3478         0.729597   
      2. B(C   2,C   1)                  1.3367         0.759956   
      3. B(C   3,C   2)                  1.3390         0.753447   
      4. B(C   4,C   3)                  1.3395         0.752143   
      5. B(C   5,C   4)                  1.3375         0.757782   
      6. B(C   6,C   5)                  1.3481         0.728757   
      7. B(C   7,C   6)                  1.3618         0.692903   
      8. B(C   8,C   7)                  1.3473         0.730802   
      9. B(C   9,C   8)                  1.3367         0.759837   
     10. B(C  10,C   9)                  1.3394         0.752429   
     11. B(C  11,C  10)                  1.3393         0.752812   
     12. B(C  12,C  11)                  1.3376         0.757509   
     13. B(C  13,C  12)                  1.3487         0.727259   
     14. B(C  13,C   0)                  1.3631         0.689583   
     15. B(C  14,C   3)                  1.3455         0.735787   
     16. B(C  14,C  13)                  1.3593         0.699401   
     17. B(C  15,C  14)                  1.3575         0.703925   
     18. B(C  15,C  10)                  1.3455         0.735783   
     19. B(C  15,C   6)                  1.3588         0.700552   
     20. B(C  16,C   0)                  1.3567         0.705988   
     21. B(C  17,C   7)                  1.3550         0.710517   
     22. B(C  18,C  16)                  1.3497         0.724606   
     23. B(C  19,C  17)                  1.3446         0.738121   
     24. B(N  20,C  19)                  1.2676         0.877375   
     25. B(N  21,C  18)                  1.2560         0.915442   
     26. B(O  22,N  21)                  1.3147         0.660866   
     27. B(O  23,N  21)                  1.3133         0.664384   
     28. B(H  24,C   1)                  1.0997         0.347466   
     29. B(H  25,C   2)                  1.1042         0.341830   
     30. B(H  26,C   4)                  1.1044         0.341578   
     31. B(H  27,C   5)                  1.0989         0.348486   
     32. B(H  28,C   8)                  1.1002         0.346807   
     33. B(H  29,C   9)                  1.1041         0.341947   
     34. B(H  30,C  11)                  1.1044         0.341509   
     35. B(H  31,C  12)                  1.0988         0.348593   
     36. B(H  32,C  16)                  1.0977         0.350058   
     37. B(H  33,C  17)                  1.0999         0.347299   
     38. B(H  34,C  18)                  1.1005         0.346490   
     39. B(H  35,C  19)                  1.0972         0.350706   
     40. B(H  36,N  20)                  1.0499         0.373737   
     41. B(H  37,N  20)                  1.0496         0.374106   
     42. A(C   1,C   0,C  16)          119.0012         0.457697   
     43. A(C   1,C   0,C  13)          116.8535         0.455740   
     44. A(C  13,C   0,C  16)          124.1454         0.453019   
     45. A(C   2,C   1,H  24)          114.1907         0.363126   
     46. A(C   0,C   1,H  24)          123.5272         0.360609   
     47. A(C   0,C   1,C   2)          122.2821         0.463895   
     48. A(C   3,C   2,H  25)          121.1834         0.361583   
     49. A(C   1,C   2,C   3)          119.9418         0.466635   
     50. A(C   1,C   2,H  25)          118.8748         0.362114   
     51. A(C   2,C   3,C  14)          120.3692         0.463882   
     52. A(C   4,C   3,C  14)          120.4295         0.463735   
     53. A(C   2,C   3,C   4)          119.2013         0.465752   
     54. A(C   3,C   4,H  26)          120.9603         0.361430   
     55. A(C   5,C   4,H  26)          118.7464         0.361891   
     56. A(C   3,C   4,C   5)          120.2933         0.466242   
     57. A(C   6,C   5,H  27)          124.1294         0.360718   
     58. A(C   4,C   5,C   6)          122.1851         0.463554   
     59. A(C   4,C   5,H  27)          113.6855         0.363131   
     60. A(C   5,C   6,C   7)          122.3757         0.456043   
     61. A(C   7,C   6,C  15)          121.6135         0.452778   
     62. A(C   5,C   6,C  15)          116.0109         0.456956   
     63. A(C   6,C   7,C   8)          117.1479         0.456276   
     64. A(C   6,C   7,C  17)          124.2914         0.453943   
     65. A(C   8,C   7,C  17)          118.5607         0.458368   
     66. A(C   9,C   8,H  28)          114.7098         0.362999   
     67. A(C   7,C   8,H  28)          123.2376         0.360593   
     68. A(C   7,C   8,C   9)          122.0526         0.464022   
     69. A(C  10,C   9,H  29)          121.2270         0.361520   
     70. A(C   8,C   9,H  29)          118.8445         0.362125   
     71. A(C   8,C   9,C  10)          119.9286         0.466506   
     72. A(C  11,C  10,C  15)          120.2478         0.463810   
     73. A(C   9,C  10,C  15)          120.5006         0.463767   
     74. A(C   9,C  10,C  11)          119.2516         0.465713   
     75. A(C  12,C  11,H  30)          118.7883         0.361856   
     76. A(C  10,C  11,C  12)          120.3093         0.466287   
     77. A(C  10,C  11,H  30)          120.9024         0.361473   
     78. A(C  11,C  12,H  31)          113.3332         0.363127   
     79. A(C  11,C  12,C  13)          122.3909         0.463350   
     80. A(C  13,C  12,H  31)          124.2759         0.360610   
     81. A(C   0,C  13,C  12)          122.5564         0.455473   
     82. A(C  12,C  13,C  14)          115.7522         0.456648   
     83. A(C   0,C  13,C  14)          121.6914         0.452248   
     84. A(C  13,C  14,C  15)          123.3152         0.453944   
     85. A(C   3,C  14,C  15)          117.8227         0.458158   
     86. A(C   3,C  14,C  13)          118.8621         0.457619   
     87. A(C  10,C  15,C  14)          117.9846         0.458157   
     88. A(C   6,C  15,C  14)          123.2585         0.454080   
     89. A(C   6,C  15,C  10)          118.7569         0.457756   
     90. A(C  18,C  16,H  32)          111.9964         0.360643   
     91. A(C   0,C  16,H  32)          118.4915         0.359048   
     92. A(C   0,C  16,C  18)          129.5121         0.457124   
     93. A(C  19,C  17,H  33)          111.3838         0.361294   
     94. A(C   7,C  17,H  33)          119.9588         0.358955   
     95. A(C   7,C  17,C  19)          128.6574         0.459202   
     96. A(N  21,C  18,H  34)          115.4339         0.372389   
     97. A(C  16,C  18,H  34)          120.2434         0.360014   
     98. A(C  16,C  18,N  21)          124.3227         0.476208   
     99. A(N  20,C  19,H  35)          111.7452         0.370448   
    100. A(C  17,C  19,H  35)          126.5426         0.361896   
    101. A(C  17,C  19,N  20)          121.7122         0.474111   
    102. A(H  36,N  20,H  37)          119.0352         0.289553   
    103. A(C  19,N  20,H  37)          120.2981         0.371264   
    104. A(C  19,N  20,H  36)          120.6668         0.371201   
    105. A(O  22,N  21,O  23)          115.3648         0.432934   
    106. A(C  18,N  21,O  23)          124.3587         0.462393   
    107. A(C  18,N  21,O  22)          120.2766         0.461945   
    108. D(H  24,C   1,C   0,C  13)    179.9877         0.037765   
    109. D(H  24,C   1,C   0,C  16)     -0.0427         0.037765   
    110. D(C   2,C   1,C   0,C  13)     -0.0353         0.037765   
    111. D(C   2,C   1,C   0,C  16)    179.9343         0.037765   
    112. D(C   3,C   2,C   1,H  24)    179.9655         0.041293   
    113. D(C   3,C   2,C   1,C   0)     -0.0135         0.041293   
    114. D(H  25,C   2,C   1,H  24)      0.0005         0.041293   
    115. D(H  25,C   2,C   1,C   0)   -179.9785         0.041293   
    116. D(C  14,C   3,C   2,H  25)    179.9959         0.040521   
    117. D(C   4,C   3,C   2,C   1)   -179.9686         0.040521   
    118. D(C   4,C   3,C   2,H  25)     -0.0044         0.040521   
    119. D(C  14,C   3,C   2,C   1)      0.0318         0.040521   
    120. D(H  26,C   4,C   3,C   2)     -0.0280         0.040367   
    121. D(C   5,C   4,C   3,C   2)    179.9558         0.040367   
    122. D(C   5,C   4,C   3,C  14)     -0.0445         0.040367   
    123. D(H  26,C   4,C   3,C  14)    179.9716         0.040367   
    124. D(H  27,C   5,C   4,H  26)      0.0008         0.041034   
    125. D(C   6,C   5,C   4,C   3)      0.0193         0.041034   
    126. D(C   6,C   5,C   4,H  26)   -179.9965         0.041034   
    127. D(H  27,C   5,C   4,C   3)   -179.9835         0.041034   
    128. D(C  15,C   6,C   5,H  27)   -179.9632         0.037670   
    129. D(C  15,C   6,C   5,C   4)      0.0337         0.037670   
    130. D(C   7,C   6,C   5,H  27)      0.0374         0.037670   
    131. D(C   7,C   6,C   5,C   4)   -179.9657         0.037670   
    132. D(C  17,C   7,C   6,C  15)   -179.9062         0.033757   
    133. D(C  17,C   7,C   6,C   5)      0.0933         0.033757   
    134. D(C   8,C   7,C   6,C  15)      0.0708         0.033757   
    135. D(C   8,C   7,C   6,C   5)   -179.9298         0.033757   
    136. D(H  28,C   8,C   7,C   6)    179.9799         0.037902   
    137. D(C   9,C   8,C   7,C  17)    179.9470         0.037902   
    138. D(C   9,C   8,C   7,C   6)     -0.0313         0.037902   
    139. D(H  28,C   8,C   7,C  17)     -0.0418         0.037902   
    140. D(H  29,C   9,C   8,H  28)     -0.0034         0.041279   
    141. D(H  29,C   9,C   8,C   7)   -179.9931         0.041279   
    142. D(C  10,C   9,C   8,H  28)    179.9630         0.041279   
    143. D(C  10,C   9,C   8,C   7)     -0.0267         0.041279   
    144. D(C  15,C  10,C   9,H  29)   -179.9872         0.040401   
    145. D(C  15,C  10,C   9,C   8)      0.0472         0.040401   
    146. D(C  11,C  10,C   9,H  29)      0.0115         0.040401   
    147. D(C  11,C  10,C   9,C   8)   -179.9540         0.040401   
    148. D(H  30,C  11,C  10,C  15)    179.9835         0.040446   
    149. D(H  30,C  11,C  10,C   9)     -0.0153         0.040446   
    150. D(C  12,C  11,C  10,C  15)     -0.0341         0.040446   
    151. D(C  12,C  11,C  10,C   9)    179.9671         0.040446   
    152. D(H  31,C  12,C  11,H  30)     -0.0073         0.041002   
    153. D(H  31,C  12,C  11,C  10)   -179.9901         0.041002   
    154. D(C  13,C  12,C  11,H  30)    179.9979         0.041002   
    155. D(C  13,C  12,C  11,C  10)      0.0151         0.041002   
    156. D(C  14,C  13,C  12,H  31)   -179.9639         0.037502   
    157. D(C   0,C  13,C  12,H  31)      0.0424         0.037502   
    158. D(C   0,C  13,C  12,C  11)   -179.9634         0.037502   
    159. D(C  14,C  13,C   0,C  16)   -179.9000         0.033408   
    160. D(C  14,C  13,C   0,C   1)      0.0679         0.033408   
    161. D(C  14,C  13,C  12,C  11)      0.0303         0.037502   
    162. D(C  12,C  13,C   0,C  16)      0.0933         0.033408   
    163. D(C  12,C  13,C   0,C   1)   -179.9388         0.033408   
    164. D(C   3,C  14,C  13,C  12)    179.9548         0.034447   
    165. D(C   3,C  14,C  13,C   0)     -0.0515         0.034447   
    166. D(C  15,C  14,C   3,C   4)      0.0145         0.038469   
    167. D(C  15,C  14,C   3,C   2)   -179.9858         0.038469   
    168. D(C  13,C  14,C   3,C   4)   -179.9995         0.038469   
    169. D(C  15,C  14,C  13,C   0)    179.9337         0.034447   
    170. D(C  13,C  14,C   3,C   2)      0.0002         0.038469   
    171. D(C  15,C  14,C  13,C  12)     -0.0601         0.034447   
    172. D(C  10,C  15,C  14,C  13)      0.0430         0.034932   
    173. D(C   6,C  15,C  14,C  13)   -179.9432         0.034932   
    174. D(C   6,C  15,C  14,C   3)      0.0421         0.034932   
    175. D(C  14,C  15,C  10,C  11)      0.0059         0.038469   
    176. D(C  14,C  15,C  10,C   9)   -179.9954         0.038469   
    177. D(C   6,C  15,C  10,C  11)    179.9927         0.038469   
    178. D(C   6,C  15,C  10,C   9)     -0.0085         0.038469   
    179. D(C  14,C  15,C   6,C   7)    179.9343         0.034570   
    180. D(C  14,C  15,C   6,C   5)     -0.0652         0.034570   
    181. D(C  10,C  15,C  14,C   3)   -179.9717         0.034932   
    182. D(C  10,C  15,C   6,C   7)     -0.0519         0.034570   
    183. D(C  10,C  15,C   6,C   5)    179.9487         0.034570   
    184. D(H  32,C  16,C   0,C  13)      0.0095         0.035155   
    185. D(H  32,C  16,C   0,C   1)   -179.9578         0.035155   
    186. D(C  18,C  16,C   0,C  13)    179.9677         0.035155   
    187. D(C  18,C  16,C   0,C   1)      0.0004         0.035155   
    188. D(H  33,C  17,C   7,C   8)   -179.9767         0.035647   
    189. D(H  33,C  17,C   7,C   6)     -0.0000         0.035647   
    190. D(C  19,C  17,C   7,C   8)     -0.0113         0.035647   
    191. D(C  19,C  17,C   7,C   6)    179.9653         0.035647   
    192. D(H  34,C  18,C  16,H  32)    179.9910         0.037204   
    193. D(H  34,C  18,C  16,C   0)      0.0306         0.037204   
    194. D(N  21,C  18,C  16,H  32)      0.0054         0.037204   
    195. D(N  21,C  18,C  16,C   0)   -179.9550         0.037204   
    196. D(H  35,C  19,C  17,H  33)    179.9849         0.038736   
    197. D(H  35,C  19,C  17,C   7)      0.0171         0.038736   
    198. D(N  20,C  19,C  17,H  33)     -0.0091         0.038736   
    199. D(N  20,C  19,C  17,C   7)   -179.9769         0.038736   
    200. D(H  37,N  20,C  19,H  35)   -179.9956         0.067218   
    201. D(H  37,N  20,C  19,C  17)     -0.0008         0.067218   
    202. D(H  36,N  20,C  19,H  35)      0.0011         0.067218   
    203. D(H  36,N  20,C  19,C  17)    179.9958         0.067218   
    204. D(O  23,N  21,C  18,H  34)   -179.9748         0.074051   
    205. D(O  23,N  21,C  18,C  16)      0.0115         0.074051   
    206. D(O  22,N  21,C  18,H  34)     -0.0065         0.074051   
    207. D(O  22,N  21,C  18,C  16)    179.9798         0.074051   
    -----------------------------------------------------------------

Number of atoms                         .... 38
Number of degrees of freedom            .... 207

         *************************************************************
         *                GEOMETRY OPTIMIZATION CYCLE   1            *
         *************************************************************
---------------------------------
CARTESIAN COORDINATES (ANGSTROEM)
---------------------------------
  C     -7.124680    2.738264   -0.255765
  C     -5.923520    3.349613   -0.257371
  C     -4.776417    2.669970   -0.162584
  C     -4.796981    1.334931   -0.061303
  C     -3.638721    0.668810    0.033511
  C     -3.633823   -0.664679    0.136532
  C     -4.771317   -1.388092    0.149270
  C     -4.770883   -2.745842    0.254684
  C     -5.968669   -3.362797    0.255382
  C     -7.116233   -2.684200    0.158112
  C     -7.096362   -1.348812    0.056426
  C     -8.254144   -0.682486   -0.039364
  C     -8.258998    0.651192   -0.141208
  C     -7.123641    1.379011   -0.152856
  C     -5.967332    0.671169   -0.054916
  C     -5.927907   -0.681713    0.050301
  C     -8.247375    3.493677   -0.354049
  C     -3.652041   -3.503172    0.358008
  C     -8.374570    4.833184   -0.459494
  C     -3.549357   -4.839479    0.466465
  N     -2.424145   -5.416177    0.556365
  N     -9.473336    5.435730   -0.544580
  O     -9.504650    6.746315   -0.643979
  O    -10.645519    4.843550   -0.542156
  H     -5.796629    4.439206   -0.335313
  H     -3.823789    3.228232   -0.169090
  H     -2.673091    1.204699    0.028670
  H     -2.626572   -1.098229    0.208038
  H     -6.084938   -4.453961    0.335179
  H     -8.068037   -3.243687    0.164124
  H     -9.219420   -1.219135   -0.035687
  H     -9.268795    1.078542   -0.212855
  H     -9.221226    2.987170   -0.351218
  H     -2.662335   -3.023429    0.360162
  H     -7.480963    5.475282   -0.475291
  H     -4.377702   -5.558605    0.489696
  H     -2.363070   -6.460902    0.640457
  H     -1.538360   -4.853151    0.547696

----------------------------
CARTESIAN COORDINATES (A.U.)
----------------------------
  NO LB      ZA    FRAG     MASS         X           Y           Z
   0 C     6.0000    0    12.011  -13.463694    5.174569   -0.483326
   1 C     6.0000    0    12.011  -11.193831    6.329851   -0.486361
   2 C     6.0000    0    12.011   -9.026120    5.045512   -0.307239
   3 C     6.0000    0    12.011   -9.064980    2.522654   -0.115846
   4 C     6.0000    0    12.011   -6.876186    1.263868    0.063327
   5 C     6.0000    0    12.011   -6.866930   -1.256061    0.258008
   6 C     6.0000    0    12.011   -9.016482   -2.623114    0.282079
   7 C     6.0000    0    12.011   -9.015662   -5.188889    0.481283
   8 C     6.0000    0    12.011  -11.279150   -6.354765    0.482602
   9 C     6.0000    0    12.011  -13.447731   -5.072403    0.298788
  10 C     6.0000    0    12.011  -13.410181   -2.548885    0.106630
  11 C     6.0000    0    12.011  -15.598072   -1.289712   -0.074387
  12 C     6.0000    0    12.011  -15.607244    1.230575   -0.266844
  13 C     6.0000    0    12.011  -13.461731    2.605953   -0.288856
  14 C     6.0000    0    12.011  -11.276623    1.268326   -0.103776
  15 C     6.0000    0    12.011  -11.202121   -1.288251    0.095055
  16 C     6.0000    0    12.011  -15.585280    6.602093   -0.669056
  17 C     6.0000    0    12.011   -6.901357   -6.620036    0.676537
  18 C     6.0000    0    12.011  -15.825644    9.133394   -0.868318
  19 C     6.0000    0    12.011   -6.707313   -9.145290    0.881491
  20 N     7.0000    0    14.007   -4.580970  -10.235091    1.051377
  21 N     7.0000    0    14.007  -17.902011   10.272041   -1.029107
  22 O     8.0000    0    15.999  -17.961185   12.748688   -1.216944
  23 O     8.0000    0    15.999  -20.117115    9.152983   -1.024526
  24 H     1.0000    0     1.008  -10.954041    8.388884   -0.633650
  25 H     1.0000    0     1.008   -7.225914    6.100474   -0.319534
  26 H     1.0000    0     1.008   -5.051410    2.276551    0.054178
  27 H     1.0000    0     1.008   -4.963502   -2.075352    0.393135
  28 H     1.0000    0     1.008  -11.498866   -8.416767    0.633397
  29 H     1.0000    0     1.008  -15.246380   -6.129680    0.310149
  30 H     1.0000    0     1.008  -17.422179   -2.303831   -0.067439
  31 H     1.0000    0     1.008  -17.515484    2.038149   -0.402238
  32 H     1.0000    0     1.008  -17.425592    5.644933   -0.663706
  33 H     1.0000    0     1.008   -5.031084   -5.713453    0.680608
  34 H     1.0000    0     1.008  -14.136971   10.346783   -0.898170
  35 H     1.0000    0     1.008   -8.272658  -10.504241    0.925391
  36 H     1.0000    0     1.008   -4.465555  -12.209335    1.210288
  37 H     1.0000    0     1.008   -2.907079   -9.171126    1.034995

--------------------------------
INTERNAL COORDINATES (ANGSTROEM)
--------------------------------
 C      0   0   0     0.000000000000     0.00000000     0.00000000
 C      1   0   0     1.347789124692     0.00000000     0.00000000
 C      2   1   0     1.336691615679   122.28214036     0.00000000
 C      3   2   1     1.339033177549   119.94175557     0.00000000
 C      4   3   2     1.339504799856   119.20134101   180.03144212
 C      5   4   3     1.337471580994   120.29332367   179.95582385
 C      6   5   4     1.348102824435   122.18505368     0.00000000
 C      7   6   5     1.361836026198   122.37565823   180.03429626
 C      8   7   6     1.347340068812   117.14788988   180.07021349
 C      9   8   7     1.336734257586   122.05256727   359.96866717
 C     10   9   8     1.339401362468   119.92856823   359.97329752
 C     11  10   9     1.339262939792   119.25161060   180.04596389
 C     12  11  10     1.337569725037   120.30927888   179.96713865
 C     13  12  11     1.348662926796   122.39086084     0.00000000
 C      4   3   2     1.345489594762   120.36917223     0.03178197
 C     11  10   9     1.345490868959   120.50058174     0.04718182
 C      1   2   3     1.356743383345   119.00117149   179.93433364
 C      8   7   6     1.355002582595   124.29144764     0.09326083
 C     17   1   2     1.349657815559   129.51208159     0.00000000
 C     18   8   7     1.344627577790   128.65742131   179.96534667
 N     20  18   8     1.267582201732   121.71223286   180.02314434
 N     19  17   1     1.256020713312   124.32273855   180.04495448
 O     22  19  17     1.314721936389   120.27655116   179.97976977
 O     22  19  17     1.313276822938   124.35867813     0.00000000
 H      2   1   3     1.099722322631   123.52715015   180.02296729
 H      3   2   1     1.104173399002   118.87479096   180.02148441
 H      5   4   3     1.104373918789   120.96031631   359.97196876
 H      6   5   4     1.098923695048   113.68551764   180.01654150
 H      9   8   7     1.100238572522   123.23764889   179.97985653
 H     10   9   8     1.104080025057   118.84445627   180.00690706
 H     12  11  10     1.104429004376   120.90244732     0.00000000
 H     13  12  11     1.098840887626   113.33320641   180.00994901
 H     17   1   2     1.097699014216   118.49154535   180.04219087
 H     18   8   7     1.099852695683   119.95880325     0.00000000
 H     19  17   1     1.100487554342   120.24338684     0.03062154
 H     20  18   8     1.097195206999   126.54260266     0.00000000
 H     21  20  18     1.049881872267   120.66678827   179.99583364
 H     21  20  18     1.049613497656   120.29805638     0.00000000

---------------------------
INTERNAL COORDINATES (A.U.)
---------------------------
 C      0   0   0     0.000000000000     0.00000000     0.00000000
 C      1   0   0     2.546952331945     0.00000000     0.00000000
 C      2   1   0     2.525981079142   122.28214036     0.00000000
 C      3   2   1     2.530405989803   119.94175557     0.00000000
 C      4   3   2     2.531297226801   119.20134101   180.03144212
 C      5   4   3     2.527454999981   120.29332367   179.95582385
 C      6   5   4     2.547545138547   122.18505368     0.00000000
 C      7   6   5     2.573497128823   122.37565823   180.03429626
 C      8   7   6     2.546103739312   117.14788988   180.07021349
 C      9   8   7     2.526061660669   122.05256727   359.96866717
 C     10   9   8     2.531101758465   119.92856823   359.97329752
 C     11  10   9     2.530840177517   119.25161060   180.04596389
 C     12  11  10     2.527640465345   120.30927888   179.96713865
 C     13  12  11     2.548603578617   122.39086084     0.00000000
 C      4   3   2     2.542606850142   120.36917223     0.03178197
 C     11  10   9     2.542609258024   120.50058174     0.04718182
 C      1   2   3     2.563873428531   119.00117149   179.93433364
 C      8   7   6     2.560583791861   124.29144764     0.09326083
 C     17   1   2     2.550483645913   129.51208159     0.00000000
 C     18   8   7     2.540977874141   128.65742131   179.96534667
 N     20  18   8     2.395383213507   121.71223286   180.02314434
 N     19  17   1     2.373535166692   124.32273855   180.04495448
 O     22  19  17     2.484464402034   120.27655116   179.97976977
 O     22  19  17     2.481733533378   124.35867813     0.00000000
 H      2   1   3     2.078174013133   123.52715015   180.02296729
 H      3   2   1     2.086585328475   118.87479096   180.02148441
 H      5   4   3     2.086964255957   120.96031631   359.97196876
 H      6   5   4     2.076664825717   113.68551764   180.01654150
 H      9   8   7     2.079149584044   123.23764889   179.97985653
 H     10   9   8     2.086408877290   118.84445627   180.00690706
 H     12  11  10     2.087068352629   120.90244732     0.00000000
 H     13  12  11     2.076508342367   113.33320641   180.00994901
 H     17   1   2     2.074350514344   118.49154535   180.04219087
 H     18   8   7     2.078420382496   119.95880325     0.00000000
 H     19  17   1     2.079620091495   120.24338684     0.03062154
 H     20  18   8     2.073398456680   126.54260266     0.00000000
 H     21  20  18     1.983989211552   120.66678827   179.99583364
 H     21  20  18     1.983482057037   120.29805638     0.00000000

---------------------
BASIS SET INFORMATION
---------------------
There are 4 groups of distinct atoms

 Group   1 Type C   : 7s4p1d contracted to 3s2p1d pattern {511/31/1}
 Group   2 Type N   : 7s4p1d contracted to 3s2p1d pattern {511/31/1}
 Group   3 Type O   : 7s4p1d contracted to 3s2p1d pattern {511/31/1}
 Group   4 Type H   : 4s1p contracted to 2s1p pattern {31/1}

Atom   0C    basis set group =>   1
Atom   1C    basis set group =>   1
Atom   2C    basis set group =>   1
Atom   3C    basis set group =>   1
Atom   4C    basis set group =>   1
Atom   5C    basis set group =>   1
Atom   6C    basis set group =>   1
Atom   7C    basis set group =>   1
Atom   8C    basis set group =>   1
Atom   9C    basis set group =>   1
Atom  10C    basis set group =>   1
Atom  11C    basis set group =>   1
Atom  12C    basis set group =>   1
Atom  13C    basis set group =>   1
Atom  14C    basis set group =>   1
Atom  15C    basis set group =>   1
Atom  16C    basis set group =>   1
Atom  17C    basis set group =>   1
Atom  18C    basis set group =>   1
Atom  19C    basis set group =>   1
Atom  20N    basis set group =>   2
Atom  21N    basis set group =>   2
Atom  22O    basis set group =>   3
Atom  23O    basis set group =>   3
Atom  24H    basis set group =>   4
Atom  25H    basis set group =>   4
Atom  26H    basis set group =>   4
Atom  27H    basis set group =>   4
Atom  28H    basis set group =>   4
Atom  29H    basis set group =>   4
Atom  30H    basis set group =>   4
Atom  31H    basis set group =>   4
Atom  32H    basis set group =>   4
Atom  33H    basis set group =>   4
Atom  34H    basis set group =>   4
Atom  35H    basis set group =>   4
Atom  36H    basis set group =>   4
Atom  37H    basis set group =>   4
---------------------------------
AUXILIARY/J BASIS SET INFORMATION
---------------------------------
There are 4 groups of distinct atoms

 Group   1 Type C   : 12s5p4d2f1g contracted to 6s4p3d1f1g pattern {711111/2111/211/2/1}
 Group   2 Type N   : 12s5p4d2f1g contracted to 6s4p3d1f1g pattern {711111/2111/211/2/1}
 Group   3 Type O   : 12s5p4d2f1g contracted to 6s4p3d1f1g pattern {711111/2111/211/2/1}
 Group   4 Type H   : 5s2p1d contracted to 3s1p1d pattern {311/2/1}

Atom   0C    basis set group =>   1
Atom   1C    basis set group =>   1
Atom   2C    basis set group =>   1
Atom   3C    basis set group =>   1
Atom   4C    basis set group =>   1
Atom   5C    basis set group =>   1
Atom   6C    basis set group =>   1
Atom   7C    basis set group =>   1
Atom   8C    basis set group =>   1
Atom   9C    basis set group =>   1
Atom  10C    basis set group =>   1
Atom  11C    basis set group =>   1
Atom  12C    basis set group =>   1
Atom  13C    basis set group =>   1
Atom  14C    basis set group =>   1
Atom  15C    basis set group =>   1
Atom  16C    basis set group =>   1
Atom  17C    basis set group =>   1
Atom  18C    basis set group =>   1
Atom  19C    basis set group =>   1
Atom  20N    basis set group =>   2
Atom  21N    basis set group =>   2
Atom  22O    basis set group =>   3
Atom  23O    basis set group =>   3
Atom  24H    basis set group =>   4
Atom  25H    basis set group =>   4
Atom  26H    basis set group =>   4
Atom  27H    basis set group =>   4
Atom  28H    basis set group =>   4
Atom  29H    basis set group =>   4
Atom  30H    basis set group =>   4
Atom  31H    basis set group =>   4
Atom  32H    basis set group =>   4
Atom  33H    basis set group =>   4
Atom  34H    basis set group =>   4
Atom  35H    basis set group =>   4
Atom  36H    basis set group =>   4
Atom  37H    basis set group =>   4


           ************************************************************
           *        Program running with 8 parallel MPI-processes     *
           *              working on a common directory               *
           ************************************************************
------------------------------------------------------------------------------
                           ORCA GTO INTEGRAL CALCULATION
                           -- RI-GTO INTEGRALS CHOSEN --
------------------------------------------------------------------------------
------------------------------------------------------------------------------
                   ___                                                        
                  /   \      - P O W E R E D   B Y -                         
                 /     \                                                     
                 |  |  |   _    _      __       _____    __    __             
                 |  |  |  | |  | |    /  \     |  _  \  |  |  /  |          
                  \  \/   | |  | |   /    \    | | | |  |  | /  /          
                 / \  \   | |__| |  /  /\  \   | |_| |  |  |/  /          
                |  |  |   |  __  | /  /__\  \  |    /   |      \           
                |  |  |   | |  | | |   __   |  |    \   |  |\   \          
                \     /   | |  | | |  |  |  |  | |\  \  |  | \   \       
                 \___/    |_|  |_| |__|  |__|  |_| \__\ |__|  \__/        
                                                                              
                      - O R C A' S   B I G   F R I E N D -                    
                                      &                                       
                       - I N T E G R A L  F E E D E R -                       
                                                                              
 v1 FN, 2020, v2 2021                                                         
------------------------------------------------------------------------------


Reading SHARK input file NO2_NH2.SHARKINP.tmp ... ok
----------------------
SHARK INTEGRAL PACKAGE
----------------------

Number of atoms                             ...     38
Number of basis functions                   ...    406
Number of shells                            ...    186
Maximum angular momentum                    ...      2
Integral batch strategy                     ... SHARK/LIBINT Hybrid
RI-J (if used) integral strategy            ... SPLIT-RIJ (Revised 2003 algorithm where possible)
Printlevel                                  ...      1
Contraction scheme used                     ... SEGMENTED contraction
Coulomb Range Separation                    ... NOT USED
Exchange Range Separation                   ... NOT USED
Finite Nucleus Model                        ... NOT USED
Auxiliary Coulomb fitting basis             ... AVAILABLE
   # of basis functions in Aux-J            ...   1330
   # of shells in Aux-J                     ...    430
   Maximum angular momentum in Aux-J        ...      4
Auxiliary J/K fitting basis                 ... NOT available
Auxiliary Correlation fitting basis         ... NOT available
Auxiliary 'external' fitting basis          ... NOT available
Integral threshold                          ...     2.500000e-11
Primitive cut-off                           ...     2.500000e-12
Primitive pair pre-selection threshold      ...     2.500000e-12

Calculating pre-screening integrals         ... done (  0.0 sec) Dimension = 186
Organizing shell pair data                  ... done (  3.4 sec)
Shell pair information
Total number of shell pairs                 ...     17391
Shell pairs after pre-screening             ...     12048
Total number of primitive shell pairs       ...     64615
Primitive shell pairs kept                  ...     28826
          la=0 lb=0:   3546 shell pairs
          la=1 lb=0:   4403 shell pairs
          la=1 lb=1:   1430 shell pairs
          la=2 lb=0:   1515 shell pairs
          la=2 lb=1:    977 shell pairs
          la=2 lb=2:    177 shell pairs

Calculating one electron integrals          ... done (  0.0 sec)
Calculating RI/J V-Matrix + Cholesky decomp.... done (  2.9 sec)
Calculating Nuclear repulsion               ... done (  0.0 sec) ENN=   1866.124407893988 Eh

SHARK setup successfully completed in   7.1 seconds

Maximum memory used throughout the entire GTOINT-calculation: 22.4 MB


           ************************************************************
           *        Program running with 8 parallel MPI-processes     *
           *              working on a common directory               *
           ************************************************************
-------------------------------------------------------------------------------
                                 ORCA SCF
-------------------------------------------------------------------------------

------------
SCF SETTINGS
------------
Hamiltonian:
 Density Functional     Method          .... DFT(GTOs)
 Exchange Functional    Exchange        .... B88
   X-Alpha parameter    XAlpha          ....  0.666667
   Becke's b parameter  XBeta           ....  0.004200
 Correlation Functional Correlation     .... LYP
 LDA part of GGA corr.  LDAOpt          .... VWN-5
 Gradients option       PostSCFGGA      .... off
 Hybrid DFT is turned on
   Fraction HF Exchange ScalHFX         ....  0.200000
   Scaling of DF-GGA-X  ScalDFX         ....  0.720000
   Scaling of DF-GGA-C  ScalDFC         ....  0.810000
   Scaling of DF-LDA-C  ScalLDAC        ....  1.000000
   Perturbative correction              ....  0.000000
   Density functional embedding theory  .... OFF
   NL short-range parameter             ....  4.800000
 RI-approximation to the Coulomb term is turned on
   Number of AuxJ basis functions       .... 1330
   RIJ-COSX (HFX calculated with COS-X)).... on


General Settings:
 Integral files         IntName         .... NO2_NH2
 Hartree-Fock type      HFTyp           .... RHF
 Total Charge           Charge          ....    0
 Multiplicity           Mult            ....    1
 Number of Electrons    NEL             ....  164
 Basis Dimension        Dim             ....  406
 Nuclear Repulsion      ENuc            ....   1866.1244078940 Eh

Convergence Acceleration:
 DIIS                   CNVDIIS         .... on
   Start iteration      DIISMaxIt       ....    12
   Startup error        DIISStart       ....  0.200000
   # of expansion vecs  DIISMaxEq       ....     5
   Bias factor          DIISBfac        ....   1.050
   Max. coefficient     DIISMaxC        ....  10.000
 Trust-Rad. Augm. Hess. CNVTRAH         .... auto
   Auto Start mean grad. ratio tolernc. ....  1.125000
   Auto Start start iteration           ....    20
   Auto Start num. interpolation iter.  ....    10
   Max. Number of Micro iterations      ....    16
   Max. Number of Macro iterations      .... Maxiter - #DIIS iter
   Number of Davidson start vectors     ....     2
   Converg. threshold I  (grad. norm)   ....   1.000e-05
   Converg. threshold II (energy diff.) ....   1.000e-08
   Grad. Scal. Fac. for Micro threshold ....   0.100
   Minimum threshold for Micro iter.    ....   0.010
   NR start threshold (gradient norm)   ....   0.001
   Initial trust radius                 ....   0.400
   Minimum AH scaling param. (alpha)    ....   1.000
   Maximum AH scaling param. (alpha)    .... 1000.000
   Orbital update algorithm             .... Taylor
   White noise on init. David. guess    .... on
   Maximum white noise                  ....   0.010
   Quad. conv. algorithm                .... NR
 SOSCF                  CNVSOSCF        .... on
   Start iteration      SOSCFMaxIt      ....   150
   Startup grad/error   SOSCFStart      ....  0.003300
 Level Shifting         CNVShift        .... on
   Level shift para.    LevelShift      ....    0.2500
   Turn off err/grad.   ShiftErr        ....    0.0010
 Zerner damping         CNVZerner       .... off
 Static damping         CNVDamp         .... on
   Fraction old density DampFac         ....    0.7000
   Max. Damping (<1)    DampMax         ....    0.9800
   Min. Damping (>=0)   DampMin         ....    0.0000
   Turn off err/grad.   DampErr         ....    0.1000
 Fernandez-Rico         CNVRico         .... off

SCF Procedure:
 Maximum # iterations   MaxIter         ....   125
 SCF integral mode      SCFMode         .... Direct
   Integral package                     .... SHARK and LIBINT hybrid scheme
 Reset frequency        DirectResetFreq ....    20
 Integral Threshold     Thresh          ....  2.500e-11 Eh
 Primitive CutOff       TCut            ....  2.500e-12 Eh

Convergence Tolerance:
 Convergence Check Mode ConvCheckMode   .... Total+1el-Energy
 Convergence forced     ConvForced      .... 0
 Energy Change          TolE            ....  1.000e-08 Eh
 1-El. energy change                    ....  1.000e-05 Eh
 Orbital Gradient       TolG            ....  1.000e-05
 Orbital Rotation angle TolX            ....  1.000e-05
 DIIS Error             TolErr          ....  5.000e-07


Diagonalization of the overlap matrix:
Smallest eigenvalue                        ... 1.179e-04
Time for diagonalization                   ...    0.031 sec
Threshold for overlap eigenvalues          ... 1.000e-08
Number of eigenvalues below threshold      ... 0
Time for construction of square roots      ...    0.067 sec
Total time needed                          ...    0.099 sec

Time for model grid setup =    0.340 sec

------------------------------
INITIAL GUESS: MODEL POTENTIAL
------------------------------
Loading Hartree-Fock densities                     ... done
Calculating cut-offs                               ... done
Initializing the effective Hamiltonian             ... done
Setting up the integral package (SHARK)            ... done
Starting the Coulomb interaction                   ... done (   0.2 sec)
Reading the grid                                   ... done
Mapping shells                                     ... done
Starting the XC term evaluation                    ... done (   0.1 sec)
  promolecular density results
     # of electrons  =    163.989466999
     EX              =   -137.080073256
     EC              =     -5.662149161
     EX+EC           =   -142.742222417
Transforming the Hamiltonian                       ... done (   0.0 sec)
Diagonalizing the Hamiltonian                      ... done (   0.0 sec)
Back transforming the eigenvectors                 ... done (   0.0 sec)
Now organizing SCF variables                       ... done
                      ------------------
                      INITIAL GUESS DONE (   0.8 sec)
                      ------------------
-------------------
DFT GRID GENERATION
-------------------

General Integration Accuracy     IntAcc      ... 4.388
Radial Grid Type                 RadialGrid  ... OptM3 with GC (2021)
Angular Grid (max. ang.)         AngularGrid ... 4 (Lebedev-302)
Angular grid pruning method      GridPruning ... 4 (adaptive)
Weight generation scheme         WeightScheme... Becke
Basis function cutoff            BFCut       ... 1.0000e-11
Integration weight cutoff        WCut        ... 1.0000e-14
Angular grids for H and He will be reduced by one unit
Partially contracted basis set               ... off
Rotationally invariant grid construction     ... off

Total number of grid points                  ...   187259
Total number of batches                      ...     2944
Average number of points per batch           ...       63
Average number of grid points per atom       ...     4928
Time for grid setup =    2.683 sec

--------------------
COSX GRID GENERATION
--------------------

GRIDX 1
-------
General Integration Accuracy     IntAcc      ... 3.816
Radial Grid Type                 RadialGrid  ... OptM3 with GC (2021)
Angular Grid (max. ang.)         AngularGrid ... 1 (Lebedev-50)
Angular grid pruning method      GridPruning ... 4 (adaptive)
Weight generation scheme         WeightScheme... Becke
Basis function cutoff            BFCut       ... 1.0000e-11
Integration weight cutoff        WCut        ... 1.0000e-14
Angular grids for H and He will be reduced by one unit
Partially contracted basis set               ... on
Rotationally invariant grid construction     ... off

Total number of grid points                  ...    23830
Total number of batches                      ...      389
Average number of points per batch           ...       61
Average number of grid points per atom       ...      627
UseSFitting                                  ... on

GRIDX 2
-------
General Integration Accuracy     IntAcc      ... 4.020
Radial Grid Type                 RadialGrid  ... OptM3 with GC (2021)
Angular Grid (max. ang.)         AngularGrid ... 2 (Lebedev-110)
Angular grid pruning method      GridPruning ... 4 (adaptive)
Weight generation scheme         WeightScheme... Becke
Basis function cutoff            BFCut       ... 1.0000e-11
Integration weight cutoff        WCut        ... 1.0000e-14
Angular grids for H and He will be reduced by one unit
Partially contracted basis set               ... on
Rotationally invariant grid construction     ... off

Total number of grid points                  ...    52252
Total number of batches                      ...      838
Average number of points per batch           ...       62
Average number of grid points per atom       ...     1375
UseSFitting                                  ... on

GRIDX 3
-------
General Integration Accuracy     IntAcc      ... 4.338
Radial Grid Type                 RadialGrid  ... OptM3 with GC (2021)
Angular Grid (max. ang.)         AngularGrid ... 3 (Lebedev-194)
Angular grid pruning method      GridPruning ... 4 (adaptive)
Weight generation scheme         WeightScheme... Becke
Basis function cutoff            BFCut       ... 1.0000e-11
Integration weight cutoff        WCut        ... 1.0000e-14
Angular grids for H and He will be reduced by one unit
Partially contracted basis set               ... on
Rotationally invariant grid construction     ... off

Total number of grid points                  ...   114655
Total number of batches                      ...     1807
Average number of points per batch           ...       63
Average number of grid points per atom       ...     3017
UseSFitting                                  ... on

Time for X-Grid setup             =    1.958 sec

--------------
SCF ITERATIONS
--------------
ITER       Energy         Delta-E        Max-DP      RMS-DP      [F,P]     Damp
               ***  Starting incremental Fock matrix formation  ***
  0  -1028.3051756017   0.000000000000 0.19906613  0.00364269  0.2612161 0.7000
  1  -1028.5773983053  -0.272222703575 0.12170671  0.00241874  0.0966794 0.7000
                               ***Turning on DIIS***
  2  -1028.6908857675  -0.113487462200 0.22737723  0.00469663  0.0423266 0.0000
  3  -1028.8714261732  -0.180540405665 0.08306955  0.00113834  0.0489981 0.0000
  4  -1028.9071333718  -0.035707198613 0.02170201  0.00031511  0.0274424 0.0000
  5  -1028.9099808079  -0.002847436114 0.01395507  0.00017717  0.0083094 0.0000
                      *** Initiating the SOSCF procedure ***
                           *** Shutting down DIIS ***
                      *** Re-Reading the Fockian *** 
                      *** Removing any level shift *** 
ITER      Energy       Delta-E        Grad      Rot      Max-DP    RMS-DP
  6  -1028.91024780  -0.0002669926  0.000873  0.000873  0.002878  0.000056
               *** Restarting incremental Fock matrix formation ***
  7  -1028.91018659   0.0000612147  0.000543  0.006719  0.002454  0.000059
  8  -1028.91020695  -0.0000203659  0.000365  0.003236  0.001790  0.000042
  9  -1028.91020578   0.0000011706  0.000488  0.002797  0.001381  0.000025
 10  -1028.91021148  -0.0000056970  0.000446  0.001577  0.001628  0.000025
 11  -1028.91020797   0.0000035071  0.000442  0.001499  0.001282  0.000019
 12  -1028.91021376  -0.0000057868  0.000077  0.000413  0.000302  0.000009
 13  -1028.91021303   0.0000007238  0.000113  0.000395  0.000199  0.000006
 14  -1028.91021412  -0.0000010854  0.000035  0.000184  0.000149  0.000003
 15  -1028.91021403   0.0000000865  0.000059  0.000119  0.000095  0.000002
 16  -1028.91021414  -0.0000001076  0.000004  0.000017  0.000039  0.000001
 17  -1028.91021413   0.0000000072  0.000008  0.000014  0.000025  0.000000
                  ***Gradient check signals convergence***
              ***Rediagonalizing the Fockian in SOSCF/NRSCF***

               *****************************************************
               *                     SUCCESS                       *
               *           SCF CONVERGED AFTER  18 CYCLES          *
               *****************************************************

Old exchange energy                            =    -27.778577054 Eh
New exchange energy                            =    -27.778613664 Eh
Exchange energy change after final integration =     -0.000036610 Eh
Total energy after final integration           =  -1028.910250756 Eh
Final COS-X integration done in                =    10.214 sec

----------------
TOTAL SCF ENERGY
----------------

Total Energy       :        -1028.91025076 Eh          -27998.07132 eV

Components:
Nuclear Repulsion  :         1866.12440789 Eh           50779.82674 eV
Electronic Energy  :        -2895.03465865 Eh          -78777.89805 eV
One Electron Energy:        -5102.79844624 Eh         -138854.20493 eV
Two Electron Energy:         2207.76378759 Eh           60076.30688 eV
Max COSX asymmetry :            0.00000358 Eh               0.00010 eV

Virial components:
Potential Energy   :        -2052.03486779 Eh          -55838.70754 eV
Kinetic Energy     :         1023.12461703 Eh           27840.63622 eV
Virial Ratio       :            2.00565487


DFT components:
N(Alpha)           :       82.000133797318 electrons
N(Beta)            :       82.000133797318 electrons
N(Total)           :      164.000267594635 electrons
E(X)               :     -110.422035793621 Eh       
E(C)               :       -6.658463431295 Eh       
E(XC)              :     -117.080499224916 Eh       
DFET-embed. en.    :        0.000000000000 Eh       

---------------
SCF CONVERGENCE
---------------

  Last Energy change         ...   -1.2647e-08  Tolerance :   1.0000e-08
  Last MAX-Density change    ...    3.9968e-15  Tolerance :   1.0000e-07
  Last RMS-Density change    ...    4.7573e-17  Tolerance :   5.0000e-09
  Last Orbital Gradient      ...    1.0221e-06  Tolerance :   1.0000e-05
  Last Orbital Rotation      ...    3.1333e-06  Tolerance :   1.0000e-05

             **** THE GBW FILE WAS UPDATED (NO2_NH2.gbw) ****
             **** DENSITY NO2_NH2.scfp WAS UPDATED ****
             **** ENERGY FILE WAS UPDATED (NO2_NH2.en.tmp) ****
             **** THE GBW FILE WAS UPDATED (NO2_NH2.gbw) ****
             **** DENSITY NO2_NH2.scfp WAS UPDATED ****
----------------
ORBITAL ENERGIES
----------------

  NO   OCC          E(Eh)            E(eV) 
   0   2.0000     -19.099314      -519.7188 
   1   2.0000     -19.096704      -519.6477 
   2   2.0000     -14.490924      -394.3181 
   3   2.0000     -14.389354      -391.5542 
   4   2.0000     -10.251534      -278.9584 
   5   2.0000     -10.210438      -277.8401 
   6   2.0000     -10.202582      -277.6264 
   7   2.0000     -10.194082      -277.3951 
   8   2.0000     -10.190030      -277.2848 
   9   2.0000     -10.189409      -277.2679 
  10   2.0000     -10.186548      -277.1901 
  11   2.0000     -10.185885      -277.1720 
  12   2.0000     -10.185079      -277.1501 
  13   2.0000     -10.183088      -277.0959 
  14   2.0000     -10.182781      -277.0875 
  15   2.0000     -10.182245      -277.0730 
  16   2.0000     -10.181782      -277.0604 
  17   2.0000     -10.181555      -277.0542 
  18   2.0000     -10.181380      -277.0494 
  19   2.0000     -10.180172      -277.0166 
  20   2.0000     -10.179370      -276.9947 
  21   2.0000     -10.176757      -276.9236 
  22   2.0000     -10.176636      -276.9203 
  23   2.0000     -10.171189      -276.7721 
  24   2.0000      -1.117756       -30.4157 
  25   2.0000      -0.976035       -26.5592 
  26   2.0000      -0.938287       -25.5321 
  27   2.0000      -0.928437       -25.2641 
  28   2.0000      -0.896255       -24.3883 
  29   2.0000      -0.866594       -23.5812 
  30   2.0000      -0.854941       -23.2641 
  31   2.0000      -0.832830       -22.6625 
  32   2.0000      -0.804078       -21.8801 
  33   2.0000      -0.783877       -21.3304 
  34   2.0000      -0.764821       -20.8118 
  35   2.0000      -0.744581       -20.2611 
  36   2.0000      -0.730522       -19.8785 
  37   2.0000      -0.694321       -18.8934 
  38   2.0000      -0.661474       -17.9996 
  39   2.0000      -0.653556       -17.7842 
  40   2.0000      -0.641335       -17.4516 
  41   2.0000      -0.628208       -17.0944 
  42   2.0000      -0.619039       -16.8449 
  43   2.0000      -0.582849       -15.8601 
  44   2.0000      -0.567175       -15.4336 
  45   2.0000      -0.551246       -15.0002 
  46   2.0000      -0.542557       -14.7637 
  47   2.0000      -0.539053       -14.6684 
  48   2.0000      -0.515528       -14.0282 
  49   2.0000      -0.506901       -13.7935 
  50   2.0000      -0.501535       -13.6474 
  51   2.0000      -0.481767       -13.1095 
  52   2.0000      -0.479620       -13.0511 
  53   2.0000      -0.476583       -12.9685 
  54   2.0000      -0.465470       -12.6661 
  55   2.0000      -0.457642       -12.4531 
  56   2.0000      -0.457215       -12.4415 
  57   2.0000      -0.448711       -12.2101 
  58   2.0000      -0.441566       -12.0156 
  59   2.0000      -0.434217       -11.8156 
  60   2.0000      -0.422156       -11.4874 
  61   2.0000      -0.415383       -11.3032 
  62   2.0000      -0.406145       -11.0518 
  63   2.0000      -0.403693       -10.9851 
  64   2.0000      -0.401791       -10.9333 
  65   2.0000      -0.395847       -10.7715 
  66   2.0000      -0.382015       -10.3951 
  67   2.0000      -0.380023       -10.3409 
  68   2.0000      -0.376311       -10.2399 
  69   2.0000      -0.354825        -9.6553 
  70   2.0000      -0.348918        -9.4945 
  71   2.0000      -0.337565        -9.1856 
  72   2.0000      -0.328180        -8.9302 
  73   2.0000      -0.310537        -8.4501 
  74   2.0000      -0.290180        -7.8962 
  75   2.0000      -0.271420        -7.3857 
  76   2.0000      -0.262132        -7.1330 
  77   2.0000      -0.249226        -6.7818 
  78   2.0000      -0.240000        -6.5307 
  79   2.0000      -0.232742        -6.3332 
  80   2.0000      -0.219256        -5.9662 
  81   2.0000      -0.183796        -5.0014 
  82   0.0000      -0.103068        -2.8046 
  83   0.0000      -0.050047        -1.3618 
  84   0.0000      -0.030636        -0.8336 
  85   0.0000      -0.012488        -0.3398 
  86   0.0000       0.007989         0.2174 
  87   0.0000       0.010070         0.2740 
  88   0.0000       0.024766         0.6739 
  89   0.0000       0.041433         1.1275 
  90   0.0000       0.054913         1.4943 
  91   0.0000       0.057238         1.5575 
  92   0.0000       0.064302         1.7497 
  93   0.0000       0.077257         2.1023 
  94   0.0000       0.083174         2.2633 
  95   0.0000       0.104694         2.8489 
  96   0.0000       0.108267         2.9461 
  97   0.0000       0.111640         3.0379 
  98   0.0000       0.129446         3.5224 
  99   0.0000       0.131329         3.5736 
 100   0.0000       0.135924         3.6987 
 101   0.0000       0.176534         4.8037 
 102   0.0000       0.185424         5.0456 
 103   0.0000       0.191611         5.2140 
 104   0.0000       0.206840         5.6284 
 105   0.0000       0.209012         5.6875 
 106   0.0000       0.223883         6.0922 
 107   0.0000       0.229498         6.2450 
 108   0.0000       0.237393         6.4598 
 109   0.0000       0.243591         6.6284 
 110   0.0000       0.248451         6.7607 
 111   0.0000       0.254044         6.9129 
 112   0.0000       0.265141         7.2148 
 113   0.0000       0.273090         7.4312 
 114   0.0000       0.276707         7.5296 
 115   0.0000       0.281558         7.6616 
 116   0.0000       0.289067         7.8659 
 117   0.0000       0.292726         7.9655 
 118   0.0000       0.297698         8.1008 
 119   0.0000       0.314044         8.5456 
 120   0.0000       0.318835         8.6759 
 121   0.0000       0.325815         8.8659 
 122   0.0000       0.337583         9.1861 
 123   0.0000       0.341218         9.2850 
 124   0.0000       0.343047         9.3348 
 125   0.0000       0.349033         9.4977 
 126   0.0000       0.366357         9.9691 
 127   0.0000       0.372419        10.1340 
 128   0.0000       0.377177        10.2635 
 129   0.0000       0.383292        10.4299 
 130   0.0000       0.393637        10.7114 
 131   0.0000       0.412928        11.2363 
 132   0.0000       0.415744        11.3130 
 133   0.0000       0.423552        11.5254 
 134   0.0000       0.426681        11.6106 
 135   0.0000       0.433622        11.7995 
 136   0.0000       0.438801        11.9404 
 137   0.0000       0.446985        12.1631 
 138   0.0000       0.448652        12.2084 
 139   0.0000       0.457326        12.4445 
 140   0.0000       0.459960        12.5161 
 141   0.0000       0.464015        12.6265 
 142   0.0000       0.473031        12.8718 
 143   0.0000       0.487748        13.2723 
 144   0.0000       0.491564        13.3761 
 145   0.0000       0.494628        13.4595 
 146   0.0000       0.498557        13.5664 
 147   0.0000       0.500279        13.6133 
 148   0.0000       0.505382        13.7522 
 149   0.0000       0.520285        14.1577 
 150   0.0000       0.528966        14.3939 
 151   0.0000       0.530214        14.4279 
 152   0.0000       0.538238        14.6462 
 153   0.0000       0.542134        14.7522 
 154   0.0000       0.542713        14.7680 
 155   0.0000       0.553831        15.0705 
 156   0.0000       0.566335        15.4108 
 157   0.0000       0.574182        15.6243 
 158   0.0000       0.585605        15.9351 
 159   0.0000       0.594024        16.1642 
 160   0.0000       0.596573        16.2336 
 161   0.0000       0.608378        16.5548 
 162   0.0000       0.608724        16.5642 
 163   0.0000       0.609947        16.5975 
 164   0.0000       0.616378        16.7725 
 165   0.0000       0.636021        17.3070 
 166   0.0000       0.645265        17.5586 
 167   0.0000       0.647608        17.6223 
 168   0.0000       0.652579        17.7576 
 169   0.0000       0.653032        17.7699 
 170   0.0000       0.656367        17.8607 
 171   0.0000       0.667240        18.1565 
 172   0.0000       0.668593        18.1933 
 173   0.0000       0.670841        18.2545 
 174   0.0000       0.673717        18.3328 
 175   0.0000       0.676096        18.3975 
 176   0.0000       0.698255        19.0005 
 177   0.0000       0.701033        19.0761 
 178   0.0000       0.714798        19.4506 
 179   0.0000       0.728683        19.8285 
 180   0.0000       0.730688        19.8830 
 181   0.0000       0.742942        20.2165 
 182   0.0000       0.743947        20.2438 
 183   0.0000       0.752055        20.4645 
 184   0.0000       0.755572        20.5601 
 185   0.0000       0.755734        20.5646 
 186   0.0000       0.771365        20.9899 
 187   0.0000       0.772629        21.0243 
 188   0.0000       0.805057        21.9067 
 189   0.0000       0.806508        21.9462 
 190   0.0000       0.815066        22.1791 
 191   0.0000       0.817327        22.2406 
 192   0.0000       0.830297        22.5935 
 193   0.0000       0.838687        22.8218 
 194   0.0000       0.846111        23.0239 
 195   0.0000       0.854255        23.2455 
 196   0.0000       0.860186        23.4069 
 197   0.0000       0.875489        23.8233 
 198   0.0000       0.882161        24.0048 
 199   0.0000       0.889620        24.2078 
 200   0.0000       0.892893        24.2969 
 201   0.0000       0.905274        24.6338 
 202   0.0000       0.920061        25.0361 
 203   0.0000       0.921263        25.0688 
 204   0.0000       0.939872        25.5752 
 205   0.0000       0.947063        25.7709 
 206   0.0000       0.953371        25.9425 
 207   0.0000       0.956826        26.0365 
 208   0.0000       0.980907        26.6918 
 209   0.0000       1.000989        27.2383 
 210   0.0000       1.028591        27.9894 
 211   0.0000       1.030196        28.0331 
 212   0.0000       1.038910        28.2702 
 213   0.0000       1.050420        28.5834 
 214   0.0000       1.064929        28.9782 
 215   0.0000       1.088236        29.6124 
 216   0.0000       1.095903        29.8210 
 217   0.0000       1.106760        30.1165 
 218   0.0000       1.132359        30.8131 
 219   0.0000       1.149751        31.2863 
 220   0.0000       1.152460        31.3600 
 221   0.0000       1.155350        31.4387 
 222   0.0000       1.174209        31.9518 
 223   0.0000       1.181497        32.1502 
 224   0.0000       1.187902        32.3245 
 225   0.0000       1.188699        32.3461 
 226   0.0000       1.196610        32.5614 
 227   0.0000       1.202585        32.7240 
 228   0.0000       1.211784        32.9743 
 229   0.0000       1.220414        33.2091 
 230   0.0000       1.224081        33.3089 
 231   0.0000       1.232687        33.5431 
 232   0.0000       1.233322        33.5604 
 233   0.0000       1.241491        33.7827 
 234   0.0000       1.247834        33.9553 
 235   0.0000       1.251176        34.0462 
 236   0.0000       1.253019        34.0964 
 237   0.0000       1.258477        34.2449 
 238   0.0000       1.274850        34.6904 
 239   0.0000       1.277715        34.7684 
 240   0.0000       1.283831        34.9348 
 241   0.0000       1.290277        35.1102 
 242   0.0000       1.310365        35.6568 
 243   0.0000       1.313157        35.7328 
 244   0.0000       1.320568        35.9345 
 245   0.0000       1.324761        36.0486 
 246   0.0000       1.352986        36.8166 
 247   0.0000       1.364218        37.1223 
 248   0.0000       1.365656        37.1614 
 249   0.0000       1.367272        37.2054 
 250   0.0000       1.373632        37.3784 
 251   0.0000       1.383520        37.6475 
 252   0.0000       1.395663        37.9779 
 253   0.0000       1.421165        38.6719 
 254   0.0000       1.421376        38.6776 
 255   0.0000       1.435428        39.0600 
 256   0.0000       1.458911        39.6990 
 257   0.0000       1.469667        39.9917 
 258   0.0000       1.477671        40.2095 
 259   0.0000       1.496696        40.7272 
 260   0.0000       1.518341        41.3162 
 261   0.0000       1.565974        42.6123 
 262   0.0000       1.594706        43.3941 
 263   0.0000       1.645498        44.7763 
 264   0.0000       1.668431        45.4003 
 265   0.0000       1.669029        45.4166 
 266   0.0000       1.690092        45.9897 
 267   0.0000       1.692948        46.0675 
 268   0.0000       1.700138        46.2631 
 269   0.0000       1.704513        46.3822 
 270   0.0000       1.716738        46.7148 
 271   0.0000       1.728236        47.0277 
 272   0.0000       1.735442        47.2238 
 273   0.0000       1.736046        47.2402 
 274   0.0000       1.742717        47.4217 
 275   0.0000       1.750744        47.6402 
 276   0.0000       1.761407        47.9303 
 277   0.0000       1.764667        48.0190 
 278   0.0000       1.768260        48.1168 
 279   0.0000       1.774681        48.2915 
 280   0.0000       1.777117        48.3578 
 281   0.0000       1.789527        48.6955 
 282   0.0000       1.792092        48.7653 
 283   0.0000       1.797901        48.9234 
 284   0.0000       1.801767        49.0286 
 285   0.0000       1.807956        49.1970 
 286   0.0000       1.821847        49.5750 
 287   0.0000       1.827661        49.7332 
 288   0.0000       1.830389        49.8074 
 289   0.0000       1.836127        49.9636 
 290   0.0000       1.848579        50.3024 
 291   0.0000       1.861513        50.6544 
 292   0.0000       1.872758        50.9603 
 293   0.0000       1.897939        51.6455 
 294   0.0000       1.906317        51.8735 
 295   0.0000       1.911718        52.0205 
 296   0.0000       1.922768        52.3212 
 297   0.0000       1.941331        52.8263 
 298   0.0000       1.945155        52.9304 
 299   0.0000       1.945622        52.9431 
 300   0.0000       1.969733        53.5992 
 301   0.0000       1.976959        53.7958 
 302   0.0000       1.986873        54.0656 
 303   0.0000       1.997910        54.3659 
 304   0.0000       2.004498        54.5452 
 305   0.0000       2.027703        55.1766 
 306   0.0000       2.031013        55.2667 
 307   0.0000       2.060611        56.0721 
 308   0.0000       2.065008        56.1917 
 309   0.0000       2.072699        56.4010 
 310   0.0000       2.076238        56.4973 
 311   0.0000       2.079053        56.5739 
 312   0.0000       2.102025        57.1990 
 313   0.0000       2.120522        57.7023 
 314   0.0000       2.120617        57.7049 
 315   0.0000       2.128697        57.9248 
 316   0.0000       2.156083        58.6700 
 317   0.0000       2.157871        58.7187 
 318   0.0000       2.177353        59.2488 
 319   0.0000       2.187703        59.5304 
 320   0.0000       2.191669        59.6384 
 321   0.0000       2.207625        60.0725 
 322   0.0000       2.212391        60.2022 
 323   0.0000       2.213793        60.2404 
 324   0.0000       2.230048        60.6827 
 325   0.0000       2.235175        60.8222 
 326   0.0000       2.261348        61.5344 
 327   0.0000       2.269710        61.7620 
 328   0.0000       2.273717        61.8710 
 329   0.0000       2.276823        61.9555 
 330   0.0000       2.277855        61.9836 
 331   0.0000       2.284852        62.1740 
 332   0.0000       2.320822        63.1528 
 333   0.0000       2.325604        63.2829 
 334   0.0000       2.326035        63.2946 
 335   0.0000       2.338651        63.6379 
 336   0.0000       2.344283        63.7912 
 337   0.0000       2.354948        64.0814 
 338   0.0000       2.370533        64.5055 
 339   0.0000       2.381425        64.8019 
 340   0.0000       2.394122        65.1474 
 341   0.0000       2.419761        65.8450 
 342   0.0000       2.420201        65.8570 
 343   0.0000       2.454946        66.8025 
 344   0.0000       2.474480        67.3340 
 345   0.0000       2.480598        67.5005 
 346   0.0000       2.500339        68.0377 
 347   0.0000       2.530820        68.8671 
 348   0.0000       2.533552        68.9415 
 349   0.0000       2.554179        69.5028 
 350   0.0000       2.566983        69.8512 
 351   0.0000       2.577108        70.1267 
 352   0.0000       2.604750        70.8789 
 353   0.0000       2.616527        71.1993 
 354   0.0000       2.626627        71.4742 
 355   0.0000       2.631764        71.6139 
 356   0.0000       2.642313        71.9010 
 357   0.0000       2.650097        72.1128 
 358   0.0000       2.680863        72.9500 
 359   0.0000       2.684824        73.0578 
 360   0.0000       2.698441        73.4283 
 361   0.0000       2.705003        73.6069 
 362   0.0000       2.713359        73.8342 
 363   0.0000       2.715841        73.9018 
 364   0.0000       2.718366        73.9705 
 365   0.0000       2.722464        74.0820 
 366   0.0000       2.729784        74.2812 
 367   0.0000       2.736540        74.4651 
 368   0.0000       2.752133        74.8893 
 369   0.0000       2.761760        75.1513 
 370   0.0000       2.769347        75.3578 
 371   0.0000       2.795878        76.0797 
 372   0.0000       2.808282        76.4172 
 373   0.0000       2.821267        76.7706 
 374   0.0000       2.851782        77.6009 
 375   0.0000       2.869925        78.0946 
 376   0.0000       2.870224        78.1028 
 377   0.0000       2.871061        78.1255 
 378   0.0000       2.883543        78.4652 
 379   0.0000       2.917991        79.4026 
 380   0.0000       2.931528        79.7709 
 381   0.0000       2.963929        80.6526 
 382   0.0000       3.000006        81.6343 
 383   0.0000       3.020647        82.1960 
 384   0.0000       3.054775        83.1246 
 385   0.0000       3.072870        83.6170 
 386   0.0000       3.082178        83.8703 
 387   0.0000       3.097697        84.2926 
 388   0.0000       3.128662        85.1352 
 389   0.0000       3.146523        85.6212 
 390   0.0000       3.162066        86.0442 
 391   0.0000       3.169629        86.2500 
 392   0.0000       3.189712        86.7965 
 393   0.0000       3.257057        88.6290 
 394   0.0000       3.286183        89.4216 
 395   0.0000       3.331131        90.6447 
 396   0.0000       3.399792        92.5131 
 397   0.0000       3.470807        94.4455 
 398   0.0000       3.523499        95.8793 
 399   0.0000       3.549202        96.5787 
 400   0.0000       3.625550        98.6562 
 401   0.0000       3.645339        99.1947 
 402   0.0000       3.734963       101.6335 
 403   0.0000       3.867662       105.2444 
 404   0.0000       3.892421       105.9182 
 405   0.0000       3.931983       106.9947 

                    ********************************
                    * MULLIKEN POPULATION ANALYSIS *
                    ********************************

-----------------------
MULLIKEN ATOMIC CHARGES
-----------------------
   0 C :    0.192991
   1 C :   -0.091779
   2 C :   -0.100714
   3 C :    0.149547
   4 C :   -0.092772
   5 C :   -0.130038
   6 C :    0.175174
   7 C :    0.238091
   8 C :   -0.121611
   9 C :   -0.076127
  10 C :    0.124129
  11 C :   -0.079487
  12 C :   -0.154492
  13 C :    0.213875
  14 C :    0.146298
  15 C :    0.162478
  16 C :   -0.021885
  17 C :   -0.118903
  18 C :    0.031344
  19 C :    0.015078
  20 N :   -0.025572
  21 N :    0.296524
  22 O :   -0.320906
  23 O :   -0.324827
  24 H :   -0.029911
  25 H :   -0.039517
  26 H :   -0.041409
  27 H :   -0.046816
  28 H :   -0.051219
  29 H :   -0.039283
  30 H :   -0.035714
  31 H :   -0.031231
  32 H :    0.001870
  33 H :   -0.061876
  34 H :   -0.000595
  35 H :    0.004536
  36 H :    0.146700
  37 H :    0.138051
Sum of atomic charges:   -0.0000000

--------------------------------
MULLIKEN REDUCED ORBITAL CHARGES
--------------------------------
  0 C s       :     3.087232  s :     3.087232
      pz      :     1.030733  p :     2.669635
      px      :     0.767598
      py      :     0.871303
      dz2     :     0.003391  d :     0.050141
      dxz     :     0.006850
      dyz     :     0.007376
      dx2y2   :     0.016372
      dxy     :     0.016153
  1 C s       :     3.262784  s :     3.262784
[...]
    104       0.000212   0.000007   0.001032  -0.032736   0.000008  -0.000002
    105      -0.000841  -0.029743  -0.000284   0.000136  -0.006832  -0.011774
    106      -0.000554  -0.021078  -0.000224   0.000092  -0.003960  -0.007856
    107       0.000010   0.000491   0.000006  -0.000002   0.000042   0.000156
    108       0.000003  -0.000470  -0.000002  -0.000001   0.019925  -0.012812
    109      -0.000008   0.000662   0.000041   0.000224   0.585330  -0.807941
    110       0.000001  -0.000073  -0.000003  -0.000018  -0.045835   0.063887
    111       0.000008  -0.000853  -0.000015  -0.000176  -0.717146  -0.518807
    112       0.000019   0.001063  -0.000006  -0.000104  -0.370809  -0.257386
    113      -0.000001  -0.000115   0.000000   0.000001   0.000499  -0.000520


-----------
IR SPECTRUM
-----------

 Mode   freq       eps      Int      T**2         TX        TY        TZ
       cm**-1   L/(mol*cm) km/mol    a.u.
----------------------------------------------------------------------------
  8:     21.24   0.000015    0.08  0.000227  (-0.000094  0.000687  0.015048)
  9:     27.92   0.000002    0.01  0.000025  (-0.000526  0.000124 -0.004952)
 10:     62.69   0.000760    3.84  0.003784  ( 0.002364 -0.004937 -0.061269)
 11:     67.42   0.000096    0.48  0.000444  (-0.005271 -0.020324  0.001815)
 12:    100.70   0.000009    0.05  0.000028  ( 0.000063  0.001190  0.005128)
 13:    122.45   0.000260    1.31  0.000662  ( 0.001586  0.005206  0.025145)
 14:    123.87   0.000778    3.93  0.001960  ( 0.020303  0.039061 -0.004650)
 15:    161.81   0.001136    5.74  0.002191  (-0.001476  0.003338  0.046663)
 16:    202.00   0.001646    8.32  0.002542  ( 0.002564 -0.004306 -0.050170)
 17:    216.34   0.000004    0.02  0.000005  (-0.002264 -0.000586  0.000112)
 18:    220.36   0.000700    3.54  0.000991  (-0.001421  0.002615  0.031337)
 19:    252.37   0.000274    1.38  0.000338  (-0.017256  0.006206 -0.001490)
 20:    262.48   0.000018    0.09  0.000021  ( 0.000291 -0.000548 -0.004571)
 21:    299.98   0.000253    1.28  0.000264  (-0.000919  0.001618  0.016132)
 22:    310.26   0.000605    3.06  0.000608  (-0.014178  0.020051 -0.002279)
 23:    347.22   0.000236    1.19  0.000212  ( 0.009468 -0.011020  0.000963)
 24:    384.64   0.000482    2.44  0.000391  ( 0.000887 -0.001721 -0.019690)
 25:    422.86   0.002791   14.10  0.002060  ( 0.025033 -0.037659  0.003846)
 26:    447.98   0.000632    3.19  0.000440  (-0.017033  0.012162 -0.001424)
 27:    450.00   0.000008    0.04  0.000006  ( 0.001144 -0.000760  0.001921)
 28:    495.25   0.000305    1.54  0.000192  ( 0.000638 -0.001122 -0.013801)
 29:    503.83   0.000578    2.92  0.000358  ( 0.005526 -0.018018  0.001616)
 30:    520.61   0.000191    0.97  0.000115  ( 0.002763 -0.010306  0.000904)
 31:    525.03   0.000002    0.01  0.000001  ( 0.000014 -0.000438 -0.001086)
 32:    529.54   0.000920    4.65  0.000542  (-0.000406  0.023218 -0.001769)
 33:    560.10   0.000382    1.93  0.000213  (-0.000590  0.001103  0.014531)
 34:    570.72   0.000692    3.50  0.000378  ( 0.001132 -0.002125 -0.019302)
 35:    580.11   0.001005    5.08  0.000540  (-0.008299  0.021590 -0.002338)
 36:    603.30   0.001622    8.20  0.000839  ( 0.014175 -0.025148  0.002375)
 37:    633.96   0.000746    3.77  0.000367  ( 0.008474 -0.017102  0.001646)
 38:    668.11   0.000025    0.12  0.000012  ( 0.000029  0.000140  0.003393)
 39:    701.47   0.000353    1.78  0.000157  (-0.009568  0.008028 -0.000971)
 40:    716.95   0.001133    5.73  0.000493  ( 0.000612 -0.001396 -0.022158)
 41:    735.73   0.000542    2.74  0.000230  (-0.015004 -0.002174 -0.000237)
 42:    741.21   0.000120    0.61  0.000051  ( 0.000140 -0.000436 -0.007093)
 43:    760.39   0.002695   13.62  0.001106  (-0.001129  0.002571  0.033140)
 44:    774.72   0.001977    9.99  0.000796  ( 0.021473 -0.018169  0.002232)
 45:    794.71   0.003703   18.71  0.001454  (-0.031319  0.021571 -0.002808)
 46:    815.14   0.000089    0.45  0.000034  (-0.000281  0.000858  0.005757)
 47:    819.62   0.003279   16.57  0.001248  ( 0.002743 -0.035117  0.002787)
 48:    830.63   0.000462    2.34  0.000174  (-0.000416  0.000915  0.013141)
 49:    846.92   0.005144   25.99  0.001895  ( 0.001615 -0.003703 -0.043348)
 50:    858.88   0.000139    0.70  0.000050  (-0.007072 -0.000580 -0.000342)
 51:    870.43   0.007282   36.80  0.002611  ( 0.001844 -0.003359 -0.050951)
 52:    881.04   0.002726   13.78  0.000966  (-0.001263  0.002752  0.030927)
 53:    888.76   0.002884   14.57  0.001013  ( 0.001262 -0.002646 -0.031685)
 54:    944.82   0.000735    3.71  0.000243  (-0.000457  0.001104  0.015532)
 55:    975.97   0.004907   24.80  0.001569  ( 0.001554 -0.003048 -0.039464)
 56:    980.84   0.022382  113.11  0.007121  (-0.042092  0.072798 -0.007059)
 57:    991.30   0.000468    2.37  0.000147  (-0.000551  0.000998  0.012089)
 58:    993.85   0.000771    3.90  0.000242  (-0.000635  0.001330  0.015491)
 59:   1000.49   0.001031    5.21  0.000322  ( 0.010499 -0.014453  0.001561)
 60:   1009.22   0.000651    3.29  0.000201  ( 0.001573 -0.002736 -0.013834)
 61:   1010.36   0.027422  138.58  0.008470  (-0.051054  0.076183 -0.007706)
 62:   1014.59   0.000926    4.68  0.000285  ( 0.000238 -0.000835 -0.016854)
 63:   1017.25   0.000778    3.93  0.000239  (-0.000018 -0.000327 -0.015442)
 64:   1055.42   0.007345   37.12  0.002172  (-0.015726  0.043688 -0.003966)
 65:   1118.65   0.000303    1.53  0.000084  ( 0.000402 -0.009150  0.000709)
 66:   1134.21   0.000127    0.64  0.000035  ( 0.005109 -0.002928  0.000402)
 67:   1181.25   0.000231    1.17  0.000061  ( 0.004794 -0.006127  0.000629)
 68:   1188.94   0.000133    0.67  0.000035  ( 0.005859 -0.000757  0.000238)
 69:   1204.01   0.006859   34.67  0.001778  ( 0.021111 -0.036325  0.003566)
 70:   1210.52   0.004302   21.74  0.001109  ( 0.033243 -0.001376  0.001407)
 71:   1234.25   0.000156    0.79  0.000040  (-0.005530 -0.002992  0.000081)
 72:   1254.27   0.131559  664.85  0.032732  ( 0.098653 -0.150874  0.015380)
 73:   1263.39   0.040606  205.21  0.010030  (-0.046393  0.088338 -0.008611)
 74:   1272.60   0.003290   16.63  0.000807  ( 0.013820 -0.024688  0.002518)
 75:   1279.04   0.030704  155.16  0.007491  ( 0.045919 -0.072991  0.007411)
 76:   1298.57   0.021657  109.44  0.005204  (-0.043910  0.056911 -0.006119)
 77:   1320.12   0.003621   18.30  0.000856  (-0.020221  0.021011 -0.002394)
 78:   1333.49   0.021102  106.64  0.004938  ( 0.028424 -0.063975  0.006128)
 79:   1335.68   0.018380   92.88  0.004294  (-0.036606  0.054065 -0.005583)
 80:   1370.41   0.003184   16.09  0.000725  (-0.009806  0.024967 -0.002343)
 81:   1381.52   0.001689    8.54  0.000382  ( 0.019340 -0.002570  0.000939)
 82:   1398.10   0.243435  1230.22  0.054336  ( 0.152796 -0.174988  0.019199)
 83:   1405.96   0.000779    3.94  0.000173  ( 0.006054 -0.011622  0.001122)
 84:   1414.80   0.008887   44.91  0.001960  (-0.035945  0.025634 -0.003324)
 85:   1427.12   0.005808   29.35  0.001270  ( 0.009333 -0.034267  0.002943)
 86:   1444.78   0.000369    1.86  0.000080  ( 0.002600 -0.008502  0.000764)
 87:   1469.07   0.003447   17.42  0.000732  ( 0.022107 -0.015478  0.002001)
 88:   1507.61   0.000508    2.57  0.000105  (-0.005680 -0.008528  0.000433)
 89:   1535.23   0.002303   11.64  0.000468  ( 0.018958 -0.010310  0.001562)
 90:   1548.36   0.012131   61.31  0.002445  ( 0.017837 -0.045922  0.004248)
 91:   1571.66   0.006920   34.97  0.001374  (-0.025764  0.026477 -0.003035)
 92:   1610.07   0.001763    8.91  0.000342  ( 0.016482  0.008365  0.000098)
 93:   1621.37   0.000047    0.24  0.000009  ( 0.000425  0.002956 -0.000280)
 94:   1625.32   0.092901  469.48  0.017837  (-0.111030  0.073637 -0.009332)
 95:   1644.53   0.080570  407.17  0.015289  ( 0.043015 -0.115403  0.010990)
 96:   1658.44   0.004085   20.64  0.000769  ( 0.027301  0.004790  0.000608)
 97:   1665.53   0.065138  329.18  0.012205  (-0.028265  0.106378 -0.009455)
 98:   1692.45   0.035647  180.14  0.006573  ( 0.008984 -0.080269  0.006996)
 99:   1710.87   0.179193  905.57  0.032685  ( 0.101359 -0.148895  0.015540)
100:   3168.69   0.000382    1.93  0.000038  ( 0.006036 -0.001035  0.000304)
101:   3172.67   0.000590    2.98  0.000058  ( 0.006521 -0.003899  0.000556)
102:   3173.16   0.004095   20.70  0.000403  ( 0.020053  0.000079  0.000775)
103:   3175.96   0.002448   12.37  0.000240  ( 0.014246 -0.006041  0.001020)
104:   3177.66   0.000967    4.89  0.000095  (-0.009596 -0.001700 -0.000222)
105:   3182.06   0.001717    8.68  0.000168  ( 0.008818 -0.009461  0.001071)
106:   3194.70   0.005495   27.77  0.000537  (-0.006617 -0.022160  0.001380)
107:   3197.77   0.002304   11.64  0.000225  ( 0.005398  0.013965 -0.000830)
108:   3205.95   0.000919    4.64  0.000089  ( 0.009030  0.002809  0.000068)
109:   3218.42   0.003472   17.55  0.000337  ( 0.018120 -0.002745  0.000875)
110:   3223.90   0.000445    2.25  0.000043  (-0.005843  0.002955 -0.000452)
111:   3253.70   0.003192   16.13  0.000306  (-0.009275  0.014756 -0.001546)
112:   3606.93   0.060388  305.18  0.005225  (-0.044573  0.056567 -0.006172)
113:   3735.59   0.015597   78.82  0.001303  (-0.003673 -0.035808  0.002686)

* The epsilon (eps) is given for a Dirac delta lineshape.
** The dipole moment derivative (T) already includes vibrational overlap.

The first frequency considered to be a vibration is 8
The total number of vibrations considered is 106


--------------------------
THERMOCHEMISTRY AT 298.15K
--------------------------

Temperature         ... 298.15 K
Pressure            ... 1.00 atm
Total Mass          ... 314.34 AMU

Throughout the following assumptions are being made:
  (1) The electronic state is orbitally nondegenerate
  (2) There are no thermally accessible electronically excited states
  (3) Hindered rotations indicated by low frequency modes are not
      treated as such but are treated as vibrations and this may
      cause some error
  (4) All equations used are the standard statistical mechanics
      equations for an ideal gas
  (5) All vibrations are strictly harmonic

freq.      21.24  E(vib)   ...       0.56 
freq.      27.92  E(vib)   ...       0.55 
freq.      62.69  E(vib)   ...       0.51 
freq.      67.42  E(vib)   ...       0.50 
freq.     100.70  E(vib)   ...       0.46 
freq.     122.45  E(vib)   ...       0.43 
freq.     123.87  E(vib)   ...       0.43 
freq.     161.81  E(vib)   ...       0.39 
freq.     202.00  E(vib)   ...       0.35 
freq.     216.34  E(vib)   ...       0.34 
freq.     220.36  E(vib)   ...       0.33 
freq.     252.37  E(vib)   ...       0.30 
freq.     262.48  E(vib)   ...       0.29 
freq.     299.98  E(vib)   ...       0.26 
freq.     310.26  E(vib)   ...       0.26 
freq.     347.22  E(vib)   ...       0.23 
freq.     384.64  E(vib)   ...       0.20 
freq.     422.86  E(vib)   ...       0.18 
freq.     447.98  E(vib)   ...       0.17 
freq.     450.00  E(vib)   ...       0.17 
freq.     495.25  E(vib)   ...       0.14 
freq.     503.83  E(vib)   ...       0.14 
freq.     520.61  E(vib)   ...       0.13 
freq.     525.03  E(vib)   ...       0.13 
freq.     529.54  E(vib)   ...       0.13 
freq.     560.10  E(vib)   ...       0.12 
freq.     570.72  E(vib)   ...       0.11 
freq.     580.11  E(vib)   ...       0.11 
freq.     603.30  E(vib)   ...       0.10 
freq.     633.96  E(vib)   ...       0.09 
freq.     668.11  E(vib)   ...       0.08 
freq.     701.47  E(vib)   ...       0.07 
freq.     716.95  E(vib)   ...       0.07 
freq.     735.73  E(vib)   ...       0.06 
freq.     741.21  E(vib)   ...       0.06 
freq.     760.39  E(vib)   ...       0.06 
freq.     774.72  E(vib)   ...       0.05 
freq.     794.71  E(vib)   ...       0.05 
freq.     815.14  E(vib)   ...       0.05 
freq.     819.62  E(vib)   ...       0.05 
freq.     830.63  E(vib)   ...       0.04 
freq.     846.92  E(vib)   ...       0.04 
freq.     858.88  E(vib)   ...       0.04 
freq.     870.43  E(vib)   ...       0.04 
freq.     881.04  E(vib)   ...       0.04 
freq.     888.76  E(vib)   ...       0.04 
freq.     944.82  E(vib)   ...       0.03 
freq.     975.97  E(vib)   ...       0.03 
freq.     980.84  E(vib)   ...       0.02 
freq.     991.30  E(vib)   ...       0.02 
freq.     993.85  E(vib)   ...       0.02 
freq.    1000.49  E(vib)   ...       0.02 
freq.    1009.22  E(vib)   ...       0.02 
freq.    1010.36  E(vib)   ...       0.02 
freq.    1014.59  E(vib)   ...       0.02 
freq.    1017.25  E(vib)   ...       0.02 
freq.    1055.42  E(vib)   ...       0.02 
freq.    1118.65  E(vib)   ...       0.01 
freq.    1134.21  E(vib)   ...       0.01 
freq.    1181.25  E(vib)   ...       0.01 
freq.    1188.94  E(vib)   ...       0.01 
freq.    1204.01  E(vib)   ...       0.01 
freq.    1210.52  E(vib)   ...       0.01 
freq.    1234.25  E(vib)   ...       0.01 
freq.    1254.27  E(vib)   ...       0.01 
freq.    1263.39  E(vib)   ...       0.01 
freq.    1272.60  E(vib)   ...       0.01 
freq.    1279.04  E(vib)   ...       0.01 
freq.    1298.57  E(vib)   ...       0.01 
freq.    1320.12  E(vib)   ...       0.01 
freq.    1333.49  E(vib)   ...       0.01 
freq.    1335.68  E(vib)   ...       0.01 
freq.    1370.41  E(vib)   ...       0.01 
freq.    1381.52  E(vib)   ...       0.01 
freq.    1398.10  E(vib)   ...       0.00 
freq.    1405.96  E(vib)   ...       0.00 
freq.    1414.80  E(vib)   ...       0.00 
freq.    1427.12  E(vib)   ...       0.00 
freq.    1444.78  E(vib)   ...       0.00 
freq.    1469.07  E(vib)   ...       0.00 
freq.    1507.61  E(vib)   ...       0.00 
freq.    1535.23  E(vib)   ...       0.00 
freq.    1548.36  E(vib)   ...       0.00 
freq.    1571.66  E(vib)   ...       0.00 
freq.    1610.07  E(vib)   ...       0.00 
freq.    1621.37  E(vib)   ...       0.00 
freq.    1625.32  E(vib)   ...       0.00 
freq.    1644.53  E(vib)   ...       0.00 
freq.    1658.44  E(vib)   ...       0.00 
freq.    1665.53  E(vib)   ...       0.00 
freq.    1692.45  E(vib)   ...       0.00 
freq.    1710.87  E(vib)   ...       0.00 
freq.    3168.69  E(vib)   ...       0.00 
freq.    3172.67  E(vib)   ...       0.00 
freq.    3173.16  E(vib)   ...       0.00 
freq.    3175.96  E(vib)   ...       0.00 
freq.    3177.66  E(vib)   ...       0.00 
freq.    3182.06  E(vib)   ...       0.00 
freq.    3194.70  E(vib)   ...       0.00 
freq.    3197.77  E(vib)   ...       0.00 
freq.    3205.95  E(vib)   ...       0.00 
freq.    3218.42  E(vib)   ...       0.00 
freq.    3223.90  E(vib)   ...       0.00 
freq.    3253.70  E(vib)   ...       0.00 
freq.    3606.93  E(vib)   ...       0.00 
freq.    3735.59  E(vib)   ...       0.00 

------------
INNER ENERGY
------------

The inner energy is: U= E(el) + E(ZPE) + E(vib) + E(rot) + E(trans)
    E(el)   - is the total energy from the electronic structure calculation
              = E(kin-el) + E(nuc-el) + E(el-el) + E(nuc-nuc)
    E(ZPE)  - the the zero temperature vibrational energy from the frequency calculation
    E(vib)  - the the finite temperature correction to E(ZPE) due to population
              of excited vibrational states
    E(rot)  - is the rotational thermal energy
    E(trans)- is the translational thermal energy

Summary of contributions to the inner energy U:
Electronic energy                ...  -1029.08380128 Eh
Zero point energy                ...      0.29330300 Eh     184.05 kcal/mol
Thermal vibrational correction   ...      0.01497368 Eh       9.40 kcal/mol
Thermal rotational correction    ...      0.00141627 Eh       0.89 kcal/mol
Thermal translational correction ...      0.00141627 Eh       0.89 kcal/mol
-----------------------------------------------------------------------
Total thermal energy                  -1028.77269205 Eh


Summary of corrections to the electronic energy:
(perhaps to be used in another calculation)
Total thermal correction                  0.01780622 Eh      11.17 kcal/mol
Non-thermal (ZPE) correction              0.29330300 Eh     184.05 kcal/mol
-----------------------------------------------------------------------
Total correction                          0.31110923 Eh     195.22 kcal/mol


--------
ENTHALPY
--------

The enthalpy is H = U + kB*T
                kB is Boltzmann's constant
Total free energy                 ...  -1028.77269205 Eh 
Thermal Enthalpy correction       ...      0.00094421 Eh       0.59 kcal/mol
-----------------------------------------------------------------------
Total Enthalpy                    ...  -1028.77174784 Eh


Note: Only C1 symmetry has been detected, increase convergence thresholds 
      if your molecule has a higher symmetry. Symmetry factor of 1.0 is   
      used for the rotational entropy correction. 
 

Note: Rotational entropy computed according to Herzberg 
Infrared and Raman Spectra, Chapter V,1, Van Nostrand Reinhold, 1945 
Point Group:  C1, Symmetry Number:   1  
Rotational constants in cm-1:     0.024981     0.003320     0.002931 

Vibrational entropy computed according to the QRRHO of S. Grimme
Chem.Eur.J. 2012 18 9955


-------
ENTROPY
-------

The entropy contributions are T*S = T*(S(el)+S(vib)+S(rot)+S(trans))
     S(el)   - electronic entropy
     S(vib)  - vibrational entropy
     S(rot)  - rotational entropy
     S(trans)- translational entropy
The entropies will be listed as multiplied by the temperature to get
units of energy

Electronic entropy                ...      0.00000000 Eh      0.00 kcal/mol
Vibrational entropy               ...      0.02595525 Eh     16.29 kcal/mol
Rotational entropy                ...      0.01670069 Eh     10.48 kcal/mol
Translational entropy             ...      0.02049332 Eh     12.86 kcal/mol
-----------------------------------------------------------------------
Final entropy term                ...      0.06314926 Eh     39.63 kcal/mol

In case the symmetry of your molecule has not been determined correctly
or in case you have a reason to use a different symmetry number we print 
out the resulting rotational entropy values for sn=1,12 :
 --------------------------------------------------------
|  sn= 1 | S(rot)=       0.01670069 Eh     10.48 kcal/mol|
|  sn= 2 | S(rot)=       0.01604624 Eh     10.07 kcal/mol|
|  sn= 3 | S(rot)=       0.01566341 Eh      9.83 kcal/mol|
|  sn= 4 | S(rot)=       0.01539178 Eh      9.66 kcal/mol|
|  sn= 5 | S(rot)=       0.01518109 Eh      9.53 kcal/mol|
|  sn= 6 | S(rot)=       0.01500895 Eh      9.42 kcal/mol|
|  sn= 7 | S(rot)=       0.01486340 Eh      9.33 kcal/mol|
|  sn= 8 | S(rot)=       0.01473732 Eh      9.25 kcal/mol|
|  sn= 9 | S(rot)=       0.01462612 Eh      9.18 kcal/mol|
|  sn=10 | S(rot)=       0.01452664 Eh      9.12 kcal/mol|
|  sn=11 | S(rot)=       0.01443665 Eh      9.06 kcal/mol|
|  sn=12 | S(rot)=       0.01435449 Eh      9.01 kcal/mol|
 --------------------------------------------------------


-------------------
GIBBS FREE ENERGY
-------------------

The Gibbs free energy is G = H - T*S

Total enthalpy                    ...  -1028.77174784 Eh 
Total entropy correction          ...     -0.06314926 Eh    -39.63 kcal/mol
-----------------------------------------------------------------------
Final Gibbs free energy         ...  -1028.83489710 Eh

For completeness - the Gibbs free energy minus the electronic energy
G-E(el)                           ...      0.24890417 Eh    156.19 kcal/mol


Timings for individual modules:

Sum of individual times         ...     1862.108 sec (=  31.035 min)
GTO integral calculation        ...       54.991 sec (=   0.917 min)   3.0 %
SCF iterations                  ...      841.069 sec (=  14.018 min)  45.2 %
SCF Gradient evaluation         ...      196.706 sec (=   3.278 min)  10.6 %
Geometry relaxation             ...        6.481 sec (=   0.108 min)   0.3 %
Analytical frequency calculation...      762.863 sec (=  12.714 min)  41.0 %
                             ****ORCA TERMINATED NORMALLY****
TOTAL RUN TIME: 0 days 0 hours 31 minutes 21 seconds 11 msec
