Start Job  on nano07

                                 *****************
                                 * O   R   C   A *
                                 *****************

                                            #,                                       
                                            ###                                      
                                            ####                                     
                                            #####                                    
                                            ######                                   
                                           ########,                                 
                                     ,,################,,,,,                         
                               ,,#################################,,                 
                          ,,##########################################,,             
                       ,#########################################, ''#####,          
                    ,#############################################,,   '####,        
                  ,##################################################,,,,####,       
                ,###########''''           ''''###############################       
              ,#####''   ,,,,##########,,,,          '''####'''          '####       
            ,##' ,,,,###########################,,,                        '##       
           ' ,,###''''                  '''############,,,                           
         ,,##''                                '''############,,,,        ,,,,,,###''
      ,#''                                            '''#######################'''  
     '                                                          ''''####''''         
             ,#######,   #######,   ,#######,      ##                                
            ,#'     '#,  ##    ##  ,#'     '#,    #''#        ######   ,####,        
            ##       ##  ##   ,#'  ##            #'  '#       #        #'  '#        
            ##       ##  #######   ##           ,######,      #####,   #    #        
            '#,     ,#'  ##    ##  '#,     ,#' ,#      #,         ##   #,  ,#        
             '#######'   ##     ##  '#######'  #'      '#     #####' # '####'        



                  #######################################################
                  #                        -***-                        #
                  #          Department of theory and spectroscopy      #
                  #    Directorship and core code : Frank Neese         #
                  #        Max Planck Institute fuer Kohlenforschung    #
                  #                Kaiser Wilhelm Platz 1               #
                  #                 D-45470 Muelheim/Ruhr               #
                  #                      Germany                        #
                  #                                                     #
                  #                  All rights reserved                #
                  #                        -***-                        #
                  #######################################################


                         Program Version 5.0.4 -  RELEASE  -


 With contributions from (in alphabetic order):
   Daniel Aravena         : Magnetic Suceptibility
   Michael Atanasov       : Ab Initio Ligand Field Theory (pilot matlab implementation)
   Alexander A. Auer      : GIAO ZORA, VPT2 properties, NMR spectrum
   Ute Becker             : Parallelization
   Giovanni Bistoni       : ED, misc. LED, open-shell LED, HFLD
   Martin Brehm           : Molecular dynamics
   Dmytro Bykov           : SCF Hessian
   Vijay G. Chilkuri      : MRCI spin determinant printing, contributions to CSF-ICE
   Dipayan Datta          : RHF DLPNO-CCSD density
   Achintya Kumar Dutta   : EOM-CC, STEOM-CC
   Dmitry Ganyushin       : Spin-Orbit,Spin-Spin,Magnetic field MRCI
   Miquel Garcia          : C-PCM and meta-GGA Hessian, CC/C-PCM, Gaussian charge scheme
   Yang Guo               : DLPNO-NEVPT2, F12-NEVPT2, CIM, IAO-localization
   Andreas Hansen         : Spin unrestricted coupled pair/coupled cluster methods
   Benjamin Helmich-Paris : MC-RPA, TRAH-SCF, COSX integrals
   Lee Huntington         : MR-EOM, pCC
   Robert Izsak           : Overlap fitted RIJCOSX, COSX-SCS-MP3, EOM
   Marcus Kettner         : VPT2
   Christian Kollmar      : KDIIS, OOCD, Brueckner-CCSD(T), CCSD density, CASPT2, CASPT2-K
   Simone Kossmann        : Meta GGA functionals, TD-DFT gradient, OOMP2, MP2 Hessian
   Martin Krupicka        : Initial AUTO-CI
   Lucas Lang             : DCDCAS
   Marvin Lechner         : AUTO-CI (C++ implementation), FIC-MRCC
   Dagmar Lenk            : GEPOL surface, SMD
   Dimitrios Liakos       : Extrapolation schemes; Compound Job, initial MDCI parallelization
   Dimitrios Manganas     : Further ROCIS development; embedding schemes
   Dimitrios Pantazis     : SARC Basis sets
   Anastasios Papadopoulos: AUTO-CI, single reference methods and gradients
   Taras Petrenko         : DFT Hessian,TD-DFT gradient, ASA, ECA, R-Raman, ABS, FL, XAS/XES, NRVS
   Peter Pinski           : DLPNO-MP2, DLPNO-MP2 Gradient
   Christoph Reimann      : Effective Core Potentials
   Marius Retegan         : Local ZFS, SOC
   Christoph Riplinger    : Optimizer, TS searches, QM/MM, DLPNO-CCSD(T), (RO)-DLPNO pert. Triples
   Tobias Risthaus        : Range-separated hybrids, TD-DFT gradient, RPA, STAB
   Michael Roemelt        : Original ROCIS implementation
   Masaaki Saitow         : Open-shell DLPNO-CCSD energy and density
   Barbara Sandhoefer     : DKH picture change effects
   Avijit Sen             : IP-ROCIS
   Kantharuban Sivalingam : CASSCF convergence, NEVPT2, FIC-MRCI
   Bernardo de Souza      : ESD, SOC TD-DFT
   Georgi Stoychev        : AutoAux, RI-MP2 NMR, DLPNO-MP2 response
   Willem Van den Heuvel  : Paramagnetic NMR
   Boris Wezisla          : Elementary symmetry handling
   Frank Wennmohs         : Technical directorship


 We gratefully acknowledge several colleagues who have allowed us to
 interface, adapt or use parts of their codes:
   Stefan Grimme, W. Hujo, H. Kruse, P. Pracht,  : VdW corrections, initial TS optimization,
                  C. Bannwarth, S. Ehlert          DFT functionals, gCP, sTDA/sTD-DF
   Ed Valeev, F. Pavosevic, A. Kumar             : LibInt (2-el integral package), F12 methods
   Garnet Chan, S. Sharma, J. Yang, R. Olivares  : DMRG
   Ulf Ekstrom                                   : XCFun DFT Library
   Mihaly Kallay                                 : mrcc  (arbitrary order and MRCC methods)
   Jiri Pittner, Ondrej Demel                    : Mk-CCSD
   Frank Weinhold                                : gennbo (NPA and NBO analysis)
   Christopher J. Cramer and Donald G. Truhlar   : smd solvation model
   Lars Goerigk                                  : TD-DFT with DH, B97 family of functionals
   V. Asgeirsson, H. Jonsson                     : NEB implementation
   FAccTs GmbH                                   : IRC, NEB, NEB-TS, DLPNO-Multilevel, CI-OPT
                                                   MM, QMMM, 2- and 3-layer-ONIOM, Crystal-QMMM,
                                                   LR-CPCM, SF, NACMEs, symmetry and pop. for TD-DFT,
                                                   nearIR, NL-DFT gradient (VV10), updates on ESD,
                                                   ML-optimized integration grids
   S Lehtola, MJT Oliveira, MAL Marques          : LibXC Library
   Liviu Ungur et al                             : ANISO software


 Your calculation uses the libint2 library for the computation of 2-el integrals
 For citations please refer to: http://libint.valeyev.net

 Your ORCA version has been built with support for libXC version: 5.1.0
 For citations please refer to: https://tddft.org/programs/libxc/

 This ORCA versions uses:
   CBLAS   interface :  Fast vector & matrix operations
   LAPACKE interface :  Fast linear algebra routines
   SCALAPACK package :  Parallel linear algebra routines
   Shared memory     :  Shared parallel matrices
   BLAS/LAPACK       :  OpenBLAS 0.3.15  USE64BITINT DYNAMIC_ARCH NO_AFFINITY Zen SINGLE_THREADED
        Core in use  :  Zen
   Copyright (c) 2011-2014, The OpenBLAS Project


================================================================================

----- Orbital basis set information -----
Your calculation utilizes the basis: def2-SVP
   F. Weigend and R. Ahlrichs, Phys. Chem. Chem. Phys. 7, 3297 (2005).

----- AuxJ basis set information -----
Your calculation utilizes the auxiliary basis: def2/J
   F. Weigend, Phys. Chem. Chem. Phys. 8, 1057 (2006).

================================================================================
                                        WARNINGS
                       Please study these warnings very carefully!
================================================================================


WARNING: Geometry Optimization
  ===> : Switching off AutoStart
         For restart on a previous wavefunction, please use MOREAD

INFO   : the flag for use of the SHARK integral package has been found!

================================================================================
                                       INPUT FILE
================================================================================
NAME = NO2_NH2_2.inp
|  1> ! B3LYP def2-SVP Opt PAL8 FREQ defgrid3 slowconv VeryTightSCF
|  2> *xyz 0 1
|  3>   C      -7.121715      2.887296     -0.261826
|  4>   C      -5.863942      3.531765     -0.263353
|  5>   C      -4.679833      2.825833     -0.166207
|  6>   C      -4.685924      1.418418     -0.060302
|  7>   C      -3.474150      0.666491      0.041338
|  8>   C      -3.487850     -0.696529      0.144098
|  9>   C      -4.710156     -1.449231      0.155569
| 10>   C      -4.734470     -2.880798      0.263709
| 11>   C      -6.000626     -3.514118      0.261900
| 12>   C      -7.184836     -2.806069      0.163491
| 13>   C      -7.189267     -1.401036      0.058185
| 14>   C      -8.399836     -0.649694     -0.043499
| 15>   C      -8.393647      0.713527     -0.145503
| 16>   C      -7.166053      1.458360     -0.155408
| 17>   C      -5.933667      0.721056     -0.054041
| 18>   C      -5.940233     -0.711244      0.053422
| 19>   C      -8.345873      3.665320     -0.367266
| 20>   C      -3.504791     -3.655806      0.372429
| 21>   C      -8.459327      5.004072     -0.482293
| 22>   C      -3.413434     -5.009243      0.482586
| 23>   N      -2.257571     -5.724337      0.584791
| 24>   N      -9.768568      5.623486     -0.577466
| 25>   O      -9.774053      6.845812     -0.681613
| 26>   O     -10.773400      4.922175     -0.550621
| 27>   H      -5.821544      4.619808     -0.342913
| 28>   H      -3.723394      3.355173     -0.170596
| 29>   H      -2.523621      1.206874      0.035331
| 30>   H      -2.533406     -1.216833      0.218876
| 31>   H      -6.058126     -4.601479      0.340876
| 32>   H      -8.139095     -3.340638      0.167238
| 33>   H      -9.350449     -1.190710     -0.038422
| 34>   H      -9.347030      1.235308     -0.220801
| 35>   H      -9.303678      3.142749     -0.356385
| 36>   H      -2.559564     -3.109092      0.367505
| 37>   H      -7.663613      5.744852     -0.518601
| 38>   H      -4.311103     -5.634267      0.496409
| 39>   H      -2.272585     -6.729934      0.664411
| 40>   H      -1.355119     -5.267318      0.584951
| 41> *
| 42> 
| 43>                          ****END OF INPUT****
================================================================================

                       *****************************
                       * Geometry Optimization Run *
                       *****************************

Geometry optimization settings:
Update method            Update   .... BFGS
Choice of coordinates    CoordSys .... Z-matrix Internals
Initial Hessian          InHess   .... Almoef's Model

Convergence Tolerances:
Energy Change            TolE     ....  5.0000e-06 Eh
Max. Gradient            TolMAXG  ....  3.0000e-04 Eh/bohr
RMS Gradient             TolRMSG  ....  1.0000e-04 Eh/bohr
Max. Displacement        TolMAXD  ....  4.0000e-03 bohr
RMS Displacement         TolRMSD  ....  2.0000e-03 bohr
Strict Convergence                ....  False
------------------------------------------------------------------------------
                        ORCA OPTIMIZATION COORDINATE SETUP
------------------------------------------------------------------------------

The optimization will be done in new redundant internal coordinates
Making redundant internal coordinates   ...  (new redundants) done
Evaluating the initial hessian          ...  (Almloef) done
Evaluating the coordinates              ...  done
Calculating the B-matrix                .... done
Calculating the G-matrix                .... done
Diagonalizing the G-matrix              .... done
Small eigenvalue found = 4.552e-03
Small eigenvalue found = 9.545e-03
Small eigenvalue found = 1.358e-02
The first mode is                       ....   99
The number of degrees of freedom        ....  108

    -----------------------------------------------------------------
                    Redundant Internal Coordinates


    -----------------------------------------------------------------
         Definition                    Initial Value    Approx d2E/dq
    -----------------------------------------------------------------
      1. B(C   1,C   0)                  1.4133         0.573602   
      2. B(C   2,C   1)                  1.3820         0.643459   
      3. B(C   3,C   2)                  1.4114         0.577544   
      4. B(C   4,C   3)                  1.4297         0.539953   
      5. B(C   5,C   4)                  1.3670         0.679990   
      6. B(C   6,C   5)                  1.4355         0.528580   
      7. B(C   7,C   6)                  1.4359         0.527941   
      8. B(C   8,C   7)                  1.4157         0.568476   
      9. B(C   9,C   8)                  1.3832         0.640491   
     10. B(C  10,C   9)                  1.4090         0.582715   
     11. B(C  11,C  10)                  1.4284         0.542589   
     12. B(C  12,C  11)                  1.3670         0.679767   
     13. B(C  13,C  12)                  1.4359         0.527812   
     14. B(C  13,C   0)                  1.4336         0.532367   
     15. B(C  14,C   3)                  1.4294         0.540581   
     16. B(C  14,C  13)                  1.4397         0.520575   
     17. B(C  15,C  14)                  1.4363         0.526993   
     18. B(C  15,C  10)                  1.4269         0.545676   
     19. B(C  15,C   6)                  1.4381         0.523587   
     20. B(C  16,C   0)                  1.4543         0.493338   
     21. B(C  17,C   7)                  1.4576         0.487420   
     22. B(C  18,C  16)                  1.3485         0.727786   
     23. B(C  19,C  17)                  1.3610         0.695080   
     24. B(N  20,C  19)                  1.3630         0.617902   
     25. B(N  21,C  18)                  1.4515         0.446438   
     26. B(O  22,N  21)                  1.2268         0.912935   
     27. B(O  23,N  21)                  1.2257         0.916652   
     28. B(H  24,C   1)                  1.0918         0.357764   
     29. B(H  25,C   2)                  1.0932         0.355946   
     30. B(H  26,C   4)                  1.0934         0.355611   
     31. B(H  27,C   5)                  1.0896         0.360603   
     32. B(H  28,C   8)                  1.0917         0.357805   
     33. B(H  29,C   9)                  1.0938         0.355114   
     34. B(H  30,C  11)                  1.0938         0.355114   
     35. B(H  31,C  12)                  1.0894         0.360851   
     36. B(H  32,C  16)                  1.0911         0.358593   
     37. B(H  33,C  17)                  1.0920         0.357518   
     38. B(H  34,C  18)                  1.0878         0.363068   
     39. B(H  35,C  19)                  1.0939         0.354955   
     40. B(H  36,N  20)                  1.0089         0.434531   
     41. B(H  37,N  20)                  1.0116         0.430210   
     42. A(C   1,C   0,C  16)          120.3378         0.410953   
     43. A(C   1,C   0,C  13)          118.8253         0.416550   
     44. A(C  13,C   0,C  16)          120.8369         0.405563   
     45. A(C   2,C   1,H  24)          118.7451         0.354745   
     46. A(C   0,C   1,H  24)          119.2811         0.347922   
     47. A(C   0,C   1,C   2)          121.9738         0.430906   
     48. A(C   3,C   2,H  25)          119.1395         0.348024   
     49. A(C   1,C   2,C   3)          120.7265         0.431437   
     50. A(C   1,C   2,H  25)          120.1340         0.354439   
     51. A(C   2,C   3,C  14)          119.3789         0.418197   
     52. A(C   4,C   3,C  14)          118.8780         0.413220   
     53. A(C   2,C   3,C   4)          121.7432         0.418110   
     54. A(C   3,C   4,H  26)          118.4563         0.344054   
     55. A(C   5,C   4,H  26)          120.1270         0.357720   
     56. A(C   3,C   4,C   5)          121.4167         0.430501   
     57. A(C   6,C   5,H  27)          119.6641         0.343631   
     58. A(C   4,C   5,C   6)          122.1383         0.428860   
     59. A(C   4,C   5,H  27)          118.1976         0.358569   
     60. A(C   5,C   6,C   7)          122.5337         0.409938   
     61. A(C   7,C   6,C  15)          120.1656         0.409250   
     62. A(C   5,C   6,C  15)          117.3007         0.409337   
     63. A(C   6,C   7,C   8)          117.4558         0.415268   
     64. A(C   6,C   7,C  17)          121.4296         0.404103   
     65. A(C   8,C   7,C  17)          121.1146         0.409423   
     66. A(C   9,C   8,H  28)          118.0264         0.354474   
     67. A(C   7,C   8,H  28)          119.5095         0.347403   
     68. A(C   7,C   8,C   9)          122.4642         0.429855   
     69. A(C  10,C   9,H  29)          119.0041         0.348410   
     70. A(C   8,C   9,H  29)          119.7676         0.354021   
     71. A(C   8,C   9,C  10)          121.2283         0.431769   
     72. A(C  11,C  10,C  15)          119.1668         0.414267   
     73. A(C   9,C  10,C  15)          118.6578         0.419563   
     74. A(C   9,C  10,C  11)          122.1755         0.419138   
     75. A(C  12,C  11,H  30)          119.8360         0.357615   
     76. A(C  10,C  11,C  12)          121.7359         0.430853   
     77. A(C  10,C  11,H  30)          118.4280         0.344255   
     78. A(C  11,C  12,H  31)          118.6072         0.358591   
     79. A(C  11,C  12,C  13)          121.4429         0.428723   
     80. A(C  13,C  12,H  31)          119.9498         0.343586   
     81. A(C   0,C  13,C  12)          122.9556         0.410439   
     82. A(C  12,C  13,C  14)          117.7548         0.408814   
     83. A(C   0,C  13,C  14)          119.2896         0.409437   
     84. A(C  13,C  14,C  15)          120.8002         0.408702   
     85. A(C   3,C  14,C  15)          119.3940         0.411442   
     86. A(C   3,C  14,C  13)          119.8058         0.410549   
     87. A(C  10,C  15,C  14)          119.0994         0.412127   
     88. A(C   6,C  15,C  14)          120.8723         0.409119   
     89. A(C   6,C  15,C  10)          120.0283         0.411654   
     90. A(C  18,C  16,H  32)          113.7325         0.362400   
     91. A(C   0,C  16,H  32)          118.8129         0.339368   
     92. A(C   0,C  16,C  18)          127.4545         0.428778   
     93. A(C  19,C  17,H  33)          116.1138         0.359385   
     94. A(C   7,C  17,H  33)          117.6279         0.338515   
     95. A(C   7,C  17,C  19)          126.2582         0.424343   
     96. A(N  21,C  18,H  34)          111.5317         0.332439   
     97. A(C  16,C  18,H  34)          128.1270         0.363168   
     98. A(C  16,C  18,N  21)          120.3413         0.418448   
     99. A(N  20,C  19,H  35)          113.2769         0.349686   
    100. A(C  17,C  19,H  35)          120.9396         0.358945   
    101. A(C  17,C  19,N  20)          125.7835         0.439927   
    102. A(H  36,N  20,H  37)          117.6193         0.303180   
    103. A(C  19,N  20,H  37)          121.3002         0.358109   
    104. A(C  19,N  20,H  36)          121.0805         0.358718   
    105. A(O  22,N  21,O  23)          124.6326         0.486993   
    106. A(C  18,N  21,O  23)          119.5951         0.430364   
    107. A(C  18,N  21,O  22)          115.7723         0.430050   
    108. D(H  24,C   1,C   0,C  13)   -179.9313         0.022582   
    109. D(H  24,C   1,C   0,C  16)      0.0975         0.022582   
    110. D(C   2,C   1,C   0,C  13)      0.0343         0.022582   
    111. D(C   2,C   1,C   0,C  16)   -179.9369         0.022582   
    112. D(C   3,C   2,C   1,H  24)    179.9454         0.028788   
    113. D(C   3,C   2,C   1,C   0)     -0.0203         0.028788   
    114. D(H  25,C   2,C   1,H  24)     -0.0511         0.028788   
    115. D(H  25,C   2,C   1,C   0)    179.9832         0.028788   
    116. D(C  14,C   3,C   2,H  25)    179.9990         0.022908   
    117. D(C   4,C   3,C   2,C   1)    180.0000         0.022908   
    118. D(C   4,C   3,C   2,H  25)     -0.0035         0.022908   
    119. D(C  14,C   3,C   2,C   1)      0.0024         0.022908   
    120. D(H  26,C   4,C   3,C   2)     -0.0302         0.019921   
    121. D(C   5,C   4,C   3,C   2)    179.9763         0.019921   
    122. D(C   5,C   4,C   3,C  14)     -0.0262         0.019921   
    123. D(H  26,C   4,C   3,C  14)    179.9674         0.019921   
    124. D(H  27,C   5,C   4,H  26)      0.0168         0.032412   
    125. D(C   6,C   5,C   4,C   3)      0.0232         0.032412   
    126. D(C   6,C   5,C   4,H  26)   -179.9702         0.032412   
    127. D(H  27,C   5,C   4,C   3)   -179.9897         0.032412   
    128. D(C  15,C   6,C   5,H  27)   -179.9697         0.019068   
    129. D(C  15,C   6,C   5,C   4)      0.0172         0.019068   
    130. D(C   7,C   6,C   5,H  27)      0.0406         0.019068   
    131. D(C   7,C   6,C   5,C   4)   -179.9725         0.019068   
    132. D(C  17,C   7,C   6,C  15)   -179.8270         0.019021   
    133. D(C  17,C   7,C   6,C   5)      0.1624         0.019021   
    134. D(C   8,C   7,C   6,C  15)      0.1260         0.019021   
    135. D(C   8,C   7,C   6,C   5)   -179.8846         0.019021   
    136. D(H  28,C   8,C   7,C   6)    179.9027         0.022163   
    137. D(C   9,C   8,C   7,C  17)    179.8365         0.022163   
    138. D(C   9,C   8,C   7,C   6)     -0.1167         0.022163   
    139. D(H  28,C   8,C   7,C  17)     -0.1441         0.022163   
    140. D(H  29,C   9,C   8,H  28)      0.0320         0.028505   
    141. D(H  29,C   9,C   8,C   7)   -179.9488         0.028505   
    142. D(C  10,C   9,C   8,H  28)   -179.9891         0.028505   
    143. D(C  10,C   9,C   8,C   7)      0.0300         0.028505   
    144. D(C  15,C  10,C   9,H  29)   -179.9726         0.023339   
    145. D(C  15,C  10,C   9,C   8)      0.0484         0.023339   
    146. D(C  11,C  10,C   9,H  29)      0.0251         0.023339   
    147. D(C  11,C  10,C   9,C   8)   -179.9539         0.023339   
    148. D(H  30,C  11,C  10,C  15)   -179.9850         0.020122   
    149. D(H  30,C  11,C  10,C   9)      0.0173         0.020122   
    150. D(C  12,C  11,C  10,C  15)      0.0088         0.020122   
    151. D(C  12,C  11,C  10,C   9)   -179.9889         0.020122   
    152. D(H  31,C  12,C  11,H  30)     -0.0338         0.032389   
    153. D(H  31,C  12,C  11,C  10)    179.9724         0.032389   
    154. D(C  13,C  12,C  11,H  30)    179.9947         0.032389   
    155. D(C  13,C  12,C  11,C  10)      0.0009         0.032389   
    156. D(C  14,C  13,C  12,H  31)   -179.9684         0.019012   
    157. D(C   0,C  13,C  12,H  31)     -0.0145         0.019012   
    158. D(C   0,C  13,C  12,C  11)    179.9566         0.019012   
    159. D(C  14,C  13,C   0,C  16)    179.9406         0.019350   
    160. D(C  14,C  13,C   0,C   1)     -0.0304         0.019350   
    161. D(C  14,C  13,C  12,C  11)      0.0027         0.019012   
    162. D(C  12,C  13,C   0,C  16)     -0.0126         0.019350   
    163. D(C  12,C  13,C   0,C   1)   -179.9836         0.019350   
    164. D(C   3,C  14,C  13,C  12)    179.9693         0.018482   
    165. D(C   3,C  14,C  13,C   0)      0.0136         0.018482   
    166. D(C  15,C  14,C   3,C   4)     -0.0113         0.019969   
    167. D(C  15,C  14,C   3,C   2)    179.9863         0.019969   
    168. D(C  13,C  14,C   3,C   4)   -179.9971         0.019969   
    169. D(C  15,C  14,C  13,C   0)   -179.9719         0.018482   
    170. D(C  13,C  14,C   3,C   2)      0.0006         0.019969   
    171. D(C  15,C  14,C  13,C  12)     -0.0163         0.018482   
    172. D(C  10,C  15,C  14,C  13)      0.0259         0.018951   
    173. D(C   6,C  15,C  14,C  13)   -179.9623         0.018951   
    174. D(C   6,C  15,C  14,C   3)      0.0521         0.018951   
    175. D(C  14,C  15,C  10,C  11)     -0.0218         0.020359   
    176. D(C  14,C  15,C  10,C   9)    179.9759         0.020359   
    177. D(C   6,C  15,C  10,C  11)    179.9665         0.020359   
    178. D(C   6,C  15,C  10,C   9)     -0.0357         0.020359   
    179. D(C  14,C  15,C   6,C   7)    179.9354         0.018702   
    180. D(C  14,C  15,C   6,C   5)     -0.0546         0.018702   
    181. D(C  10,C  15,C  14,C   3)   -179.9597         0.018951   
    182. D(C  10,C  15,C   6,C   7)     -0.0528         0.018702   
    183. D(C  10,C  15,C   6,C   5)    179.9573         0.018702   
    184. D(H  32,C  16,C   0,C  13)      0.4652         0.016574   
    185. D(H  32,C  16,C   0,C   1)   -179.5642         0.016574   
    186. D(C  18,C  16,C   0,C  13)   -179.4972         0.016574   
    187. D(C  18,C  16,C   0,C   1)      0.4734         0.016574   
    188. D(H  33,C  17,C   7,C   8)    179.9654         0.016176   
    189. D(H  33,C  17,C   7,C   6)     -0.0833         0.016176   
    190. D(C  19,C  17,C   7,C   8)     -0.1231         0.016176   
    191. D(C  19,C  17,C   7,C   6)    179.8282         0.016176   
    192. D(H  34,C  18,C  16,H  32)   -179.8797         0.037561   
    193. D(H  34,C  18,C  16,C   0)      0.0843         0.037561   
    194. D(N  21,C  18,C  16,H  32)      0.0324         0.037561   
    195. D(N  21,C  18,C  16,C   0)    179.9964         0.037561   
    196. D(H  35,C  19,C  17,H  33)    179.9500         0.033987   
    197. D(H  35,C  19,C  17,C   7)      0.0373         0.033987   
    198. D(N  20,C  19,C  17,H  33)     -0.0323         0.033987   
    199. D(N  20,C  19,C  17,C   7)   -179.9450         0.033987   
    200. D(H  37,N  20,C  19,H  35)   -179.9651         0.030900   
    201. D(H  37,N  20,C  19,C  17)      0.0184         0.030900   
    202. D(H  36,N  20,C  19,H  35)     -0.0540         0.030900   
    203. D(H  36,N  20,C  19,C  17)    179.9295         0.030900   
    204. D(O  23,N  21,C  18,H  34)   -179.9611         0.015695   
    205. D(O  23,N  21,C  18,C  16)      0.1132         0.015695   
    206. D(O  22,N  21,C  18,H  34)      0.0496         0.015695   
    207. D(O  22,N  21,C  18,C  16)   -179.8761         0.015695   
    -----------------------------------------------------------------

Number of atoms                         .... 38
Number of degrees of freedom            .... 207

         *************************************************************
         *                GEOMETRY OPTIMIZATION CYCLE   1            *
         *************************************************************
---------------------------------
CARTESIAN COORDINATES (ANGSTROEM)
---------------------------------
  C     -7.121715    2.887296   -0.261826
  C     -5.863942    3.531765   -0.263353
  C     -4.679833    2.825833   -0.166207
  C     -4.685924    1.418418   -0.060302
  C     -3.474150    0.666491    0.041338
  C     -3.487850   -0.696529    0.144098
  C     -4.710156   -1.449231    0.155569
  C     -4.734470   -2.880798    0.263709
  C     -6.000626   -3.514118    0.261900
  C     -7.184836   -2.806069    0.163491
  C     -7.189267   -1.401036    0.058185
  C     -8.399836   -0.649694   -0.043499
  C     -8.393647    0.713527   -0.145503
  C     -7.166053    1.458360   -0.155408
  C     -5.933667    0.721056   -0.054041
  C     -5.940233   -0.711244    0.053422
  C     -8.345873    3.665320   -0.367266
  C     -3.504791   -3.655806    0.372429
  C     -8.459327    5.004072   -0.482293
  C     -3.413434   -5.009243    0.482586
  N     -2.257571   -5.724337    0.584791
  N     -9.768568    5.623486   -0.577466
  O     -9.774053    6.845812   -0.681613
  O    -10.773400    4.922175   -0.550621
  H     -5.821544    4.619808   -0.342913
  H     -3.723394    3.355173   -0.170596
  H     -2.523621    1.206874    0.035331
  H     -2.533406   -1.216833    0.218876
  H     -6.058126   -4.601479    0.340876
  H     -8.139095   -3.340638    0.167238
  H     -9.350449   -1.190710   -0.038422
  H     -9.347030    1.235308   -0.220801
  H     -9.303678    3.142749   -0.356385
  H     -2.559564   -3.109092    0.367505
  H     -7.663613    5.744852   -0.518601
  H     -4.311103   -5.634267    0.496409
  H     -2.272585   -6.729934    0.664411
  H     -1.355119   -5.267318    0.584951

----------------------------
CARTESIAN COORDINATES (A.U.)
----------------------------
  NO LB      ZA    FRAG     MASS         X           Y           Z
   0 C     6.0000    0    12.011  -13.458091    5.456199   -0.494779
   1 C     6.0000    0    12.011  -11.081244    6.674069   -0.497665
   2 C     6.0000    0    12.011   -8.843603    5.340050   -0.314086
   3 C     6.0000    0    12.011   -8.855113    2.680422   -0.113954
   4 C     6.0000    0    12.011   -6.565192    1.259485    0.078117
   5 C     6.0000    0    12.011   -6.591081   -1.316249    0.272306
   6 C     6.0000    0    12.011   -8.900905   -2.738650    0.293983
   7 C     6.0000    0    12.011   -8.946852   -5.443919    0.498338
   8 C     6.0000    0    12.011  -11.339540   -6.640721    0.494919
   9 C     6.0000    0    12.011  -13.577372   -5.302702    0.308953
  10 C     6.0000    0    12.011  -13.585746   -2.647574    0.109954
  11 C     6.0000    0    12.011  -15.873390   -1.227744   -0.082201
  12 C     6.0000    0    12.011  -15.861694    1.348371   -0.274961
  13 C     6.0000    0    12.011  -13.541878    2.755901   -0.293679
  14 C     6.0000    0    12.011  -11.213006    1.362598   -0.102123
  15 C     6.0000    0    12.011  -11.225414   -1.344056    0.100953
  16 C     6.0000    0    12.011  -15.771414    6.926451   -0.694032
  17 C     6.0000    0    12.011   -6.623095   -6.908472    0.703789
  18 C     6.0000    0    12.011  -15.985811    9.456326   -0.911402
  19 C     6.0000    0    12.011   -6.450455   -9.466097    0.911955
  20 N     7.0000    0    14.007   -4.266191  -10.817429    1.105095
  21 N     7.0000    0    14.007  -18.459918   10.626848   -1.091253
  22 O     8.0000    0    15.999  -18.470283   12.936710   -1.288062
  23 O     8.0000    0    15.999  -20.358776    9.301563   -1.040523
  24 H     1.0000    0     1.008  -11.001124    8.730172   -0.648012
  25 H     1.0000    0     1.008   -7.036195    6.340358   -0.322380
  26 H     1.0000    0     1.008   -4.768953    2.280661    0.066766
  27 H     1.0000    0     1.008   -4.787444   -2.299481    0.413616
  28 H     1.0000    0     1.008  -11.448199   -8.695535    0.644162
  29 H     1.0000    0     1.008  -15.380661   -6.312891    0.316034
  30 H     1.0000    0     1.008  -17.669788   -2.250116   -0.072607
  31 H     1.0000    0     1.008  -17.663327    2.334394   -0.417253
  32 H     1.0000    0     1.008  -17.581403    5.938935   -0.673470
  33 H     1.0000    0     1.008   -4.836875   -5.875332    0.694484
  34 H     1.0000    0     1.008  -14.482130   10.856197   -0.980014
  35 H     1.0000    0     1.008   -8.146804  -10.647222    0.938077
  36 H     1.0000    0     1.008   -4.294563  -12.717732    1.255555
  37 H     1.0000    0     1.008   -2.560804   -9.953788    1.105397

--------------------------------
INTERNAL COORDINATES (ANGSTROEM)
--------------------------------
 C      0   0   0     0.000000000000     0.00000000     0.00000000
 C      1   0   0     1.413271220686     0.00000000     0.00000000
 C      2   1   0     1.381988226368   121.97380274     0.00000000
 C      3   2   1     1.411407082146   120.72653628     0.00000000
 C      4   3   2     1.429727641897   121.74315343   179.99998275
 C      5   4   3     1.366956776200   121.41669743   179.97626607
 C      6   5   4     1.435522149701   122.13828567     0.02321986
 C      7   6   5     1.435851491515   122.53371776   180.02745253
 C      8   7   6     1.415714841067   117.45575407   180.11544577
 C      9   8   7     1.383246558565   122.46415417   359.88326338
 C     10   9   8     1.408980737443   121.22834373     0.03004938
 C     11  10   9     1.428401813420   122.17545940   180.04607486
 C     12  11  10     1.367045944575   121.73592319   180.01108060
 C      1   2   3     1.433578997148   118.82531482     0.03427362
 C      4   3   2     1.429410911255   119.37887792     0.00000000
 C     11  10   9     1.426857253754   118.65775048     0.04837374
 C      1   2   3     1.454304557904   120.33779600   180.06310170
 C      8   7   6     1.457589750755   121.42959406     0.16240508
 C     17   1   2     1.348465772035   127.45454932     0.47341078
 C     18   8   7     1.360982137674   126.25816270   179.82821419
 N     20  18   8     1.363020383424   125.78346770   180.05503601
 N     19  17   1     1.451497020116   120.34133514   179.99643945
 O     22  19  17     1.226767106304   115.77231486   180.12388692
 O     22  19  17     1.225661095479   119.59505346     0.11322451
 H      2   1   3     1.091771475105   119.28111625   180.03444563
 H      3   2   1     1.093158570218   120.13398640   179.98318251
 H      5   4   3     1.093414491663   118.45630714   359.96984181
 H      6   5   4     1.089619819403   118.19764696   180.01027271
 H      9   8   7     1.091740538268   119.50945695   179.90271714
 H     10   9   8     1.093795362420   119.76759353   180.05122423
 H     12  11  10     1.093795759707   118.42804645     0.00000000
 H     13  12  11     1.089433038536   118.60722324   179.97242814
 H     17   1   2     1.091141266852   118.81289472   180.43581998
 H     18   8   7     1.091959030871   117.62793656   359.91672018
 H     19  17   1     1.087765622301   128.12695173     0.08428991
 H     20  18   8     1.093917597201   120.93963609     0.03732642
 H     21  20  18     1.008855832617   121.08051087   179.92951379
 H     21  20  18     1.011576000242   121.30016555     0.00000000

---------------------------
INTERNAL COORDINATES (A.U.)
---------------------------
 C      0   0   0     0.000000000000     0.00000000     0.00000000
 C      1   0   0     2.670695560049     0.00000000     0.00000000
 C      2   1   0     2.611579268140   121.97380274     0.00000000
 C      3   2   1     2.667172848732   120.72653628     0.00000000
 C      4   3   2     2.701793689283   121.74315343   179.99998275
 C      5   4   3     2.583173943927   121.41669743   179.97626607
 C      6   5   4     2.712743722112   122.13828567     0.02321986
 C      7   6   5     2.713366087945   122.53371776   180.02745253
 C      8   7   6     2.675313333344   117.45575407   180.11544577
 C      9   8   7     2.613957171377   122.46415417   359.88326338
 C     10   9   8     2.662587721738   121.22834373     0.03004938
 C     11  10   9     2.699288236560   122.17545940   180.04607486
 C     12  11  10     2.583342447734   121.73592319   180.01108060
 C      1   2   3     2.709071695951   118.82531482     0.03427362
 C      4   3   2     2.701195155110   119.37887792     0.00000000
 C     11  10   9     2.696369441793   118.65775048     0.04837374
 C      1   2   3     2.748237329752   120.33779600   180.06310170
 C      8   7   6     2.754445444537   121.42959406     0.16240508
 C     17   1   2     2.548231010112   127.45454932     0.47341078
 C     18   8   7     2.571883513362   126.25816270   179.82821419
 N     20  18   8     2.575735239624   125.78346770   180.05503601
 N     19  17   1     2.742931852222   120.34133514   179.99643945
 O     22  19  17     2.318253861018   115.77231486   180.12388692
 O     22  19  17     2.316163803457   119.59505346     0.11322451
 H      2   1   3     2.063149088776   119.28111625   180.03444563
 H      3   2   1     2.065770318662   120.13398640   179.98318251
 H      5   4   3     2.066253940104   118.45630714   359.96984181
 H      6   5   4     2.059083048765   118.19764696   180.01027271
 H      9   8   7     2.063090626626   119.50945695   179.90271714
 H     10   9   8     2.066973681527   119.76759353   180.05122423
 H     12  11  10     2.066974432291   118.42804645     0.00000000
 H     13  12  11     2.058730084079   118.60722324   179.97242814
 H     17   1   2     2.061958167770   118.81289472   180.43581998
 H     18   8   7     2.063503517808   117.62793656   359.91672018
 H     19  17   1     2.055579124043   128.12695173     0.08428991
 H     20  18   8     2.067204671787   120.93963609     0.03732642
 H     21  20  18     1.906461232255   121.08051087   179.92951379
 H     21  20  18     1.911601604104   121.30016555     0.00000000

---------------------
BASIS SET INFORMATION
---------------------
There are 4 groups of distinct atoms

 Group   1 Type C   : 7s4p1d contracted to 3s2p1d pattern {511/31/1}
 Group   2 Type N   : 7s4p1d contracted to 3s2p1d pattern {511/31/1}
 Group   3 Type O   : 7s4p1d contracted to 3s2p1d pattern {511/31/1}
 Group   4 Type H   : 4s1p contracted to 2s1p pattern {31/1}

Atom   0C    basis set group =>   1
Atom   1C    basis set group =>   1
Atom   2C    basis set group =>   1
Atom   3C    basis set group =>   1
Atom   4C    basis set group =>   1
Atom   5C    basis set group =>   1
Atom   6C    basis set group =>   1
Atom   7C    basis set group =>   1
Atom   8C    basis set group =>   1
Atom   9C    basis set group =>   1
Atom  10C    basis set group =>   1
Atom  11C    basis set group =>   1
Atom  12C    basis set group =>   1
Atom  13C    basis set group =>   1
Atom  14C    basis set group =>   1
Atom  15C    basis set group =>   1
Atom  16C    basis set group =>   1
Atom  17C    basis set group =>   1
Atom  18C    basis set group =>   1
Atom  19C    basis set group =>   1
Atom  20N    basis set group =>   2
Atom  21N    basis set group =>   2
Atom  22O    basis set group =>   3
Atom  23O    basis set group =>   3
Atom  24H    basis set group =>   4
Atom  25H    basis set group =>   4
Atom  26H    basis set group =>   4
Atom  27H    basis set group =>   4
Atom  28H    basis set group =>   4
Atom  29H    basis set group =>   4
Atom  30H    basis set group =>   4
Atom  31H    basis set group =>   4
Atom  32H    basis set group =>   4
Atom  33H    basis set group =>   4
Atom  34H    basis set group =>   4
Atom  35H    basis set group =>   4
Atom  36H    basis set group =>   4
Atom  37H    basis set group =>   4
---------------------------------
AUXILIARY/J BASIS SET INFORMATION
---------------------------------
There are 4 groups of distinct atoms

 Group   1 Type C   : 12s5p4d2f1g contracted to 6s4p3d1f1g pattern {711111/2111/211/2/1}
 Group   2 Type N   : 12s5p4d2f1g contracted to 6s4p3d1f1g pattern {711111/2111/211/2/1}
 Group   3 Type O   : 12s5p4d2f1g contracted to 6s4p3d1f1g pattern {711111/2111/211/2/1}
 Group   4 Type H   : 5s2p1d contracted to 3s1p1d pattern {311/2/1}

Atom   0C    basis set group =>   1
Atom   1C    basis set group =>   1
Atom   2C    basis set group =>   1
Atom   3C    basis set group =>   1
Atom   4C    basis set group =>   1
Atom   5C    basis set group =>   1
Atom   6C    basis set group =>   1
Atom   7C    basis set group =>   1
Atom   8C    basis set group =>   1
Atom   9C    basis set group =>   1
Atom  10C    basis set group =>   1
Atom  11C    basis set group =>   1
Atom  12C    basis set group =>   1
Atom  13C    basis set group =>   1
Atom  14C    basis set group =>   1
Atom  15C    basis set group =>   1
Atom  16C    basis set group =>   1
Atom  17C    basis set group =>   1
Atom  18C    basis set group =>   1
Atom  19C    basis set group =>   1
Atom  20N    basis set group =>   2
Atom  21N    basis set group =>   2
Atom  22O    basis set group =>   3
Atom  23O    basis set group =>   3
Atom  24H    basis set group =>   4
Atom  25H    basis set group =>   4
Atom  26H    basis set group =>   4
Atom  27H    basis set group =>   4
Atom  28H    basis set group =>   4
Atom  29H    basis set group =>   4
Atom  30H    basis set group =>   4
Atom  31H    basis set group =>   4
Atom  32H    basis set group =>   4
Atom  33H    basis set group =>   4
Atom  34H    basis set group =>   4
Atom  35H    basis set group =>   4
Atom  36H    basis set group =>   4
Atom  37H    basis set group =>   4


           ************************************************************
           *        Program running with 8 parallel MPI-processes     *
           *              working on a common directory               *
           ************************************************************
------------------------------------------------------------------------------
                           ORCA GTO INTEGRAL CALCULATION
                           -- RI-GTO INTEGRALS CHOSEN --
------------------------------------------------------------------------------
------------------------------------------------------------------------------
                   ___                                                        
                  /   \      - P O W E R E D   B Y -                         
                 /     \                                                     
                 |  |  |   _    _      __       _____    __    __             
                 |  |  |  | |  | |    /  \     |  _  \  |  |  /  |          
                  \  \/   | |  | |   /    \    | | | |  |  | /  /          
                 / \  \   | |__| |  /  /\  \   | |_| |  |  |/  /          
                |  |  |   |  __  | /  /__\  \  |    /   |      \           
                |  |  |   | |  | | |   __   |  |    \   |  |\   \          
                \     /   | |  | | |  |  |  |  | |\  \  |  | \   \       
                 \___/    |_|  |_| |__|  |__|  |_| \__\ |__|  \__/        
                                                                              
                      - O R C A' S   B I G   F R I E N D -                    
                                      &                                       
                       - I N T E G R A L  F E E D E R -                       
                                                                              
 v1 FN, 2020, v2 2021                                                         
------------------------------------------------------------------------------


Reading SHARK input file NO2_NH2_2.SHARKINP.tmp ... ok
----------------------
SHARK INTEGRAL PACKAGE
----------------------

Number of atoms                             ...     38
Number of basis functions                   ...    406
Number of shells                            ...    186
Maximum angular momentum                    ...      2
Integral batch strategy                     ... SHARK/LIBINT Hybrid
RI-J (if used) integral strategy            ... SPLIT-RIJ (Revised 2003 algorithm where possible)
Printlevel                                  ...      1
Contraction scheme used                     ... SEGMENTED contraction
Coulomb Range Separation                    ... NOT USED
Exchange Range Separation                   ... NOT USED
Finite Nucleus Model                        ... NOT USED
Auxiliary Coulomb fitting basis             ... AVAILABLE
   # of basis functions in Aux-J            ...   1330
   # of shells in Aux-J                     ...    430
   Maximum angular momentum in Aux-J        ...      4
Auxiliary J/K fitting basis                 ... NOT available
Auxiliary Correlation fitting basis         ... NOT available
Auxiliary 'external' fitting basis          ... NOT available
Integral threshold                          ...     1.000000e-12
Primitive cut-off                           ...     1.000000e-14
Primitive pair pre-selection threshold      ...     1.000000e-14

Calculating pre-screening integrals         ... done (  0.0 sec) Dimension = 186
Organizing shell pair data                  ... done (  1.2 sec)
Shell pair information
Total number of shell pairs                 ...     17391
Shell pairs after pre-screening             ...     12566
Total number of primitive shell pairs       ...     64615
Primitive shell pairs kept                  ...     30162
          la=0 lb=0:   3679 shell pairs
          la=1 lb=0:   4604 shell pairs
          la=1 lb=1:   1482 shell pairs
          la=2 lb=0:   1593 shell pairs
          la=2 lb=1:   1018 shell pairs
          la=2 lb=2:    190 shell pairs

Calculating one electron integrals          ... done (  0.0 sec)
Calculating RI/J V-Matrix + Cholesky decomp.... done (  3.1 sec)
Calculating Nuclear repulsion               ... done (  0.0 sec) ENN=   1790.204911940409 Eh

SHARK setup successfully completed in   5.8 seconds

Maximum memory used throughout the entire GTOINT-calculation: 22.9 MB


           ************************************************************
           *        Program running with 8 parallel MPI-processes     *
           *              working on a common directory               *
           ************************************************************
-------------------------------------------------------------------------------
                                 ORCA SCF
-------------------------------------------------------------------------------

------------
SCF SETTINGS
------------
Hamiltonian:
 Density Functional     Method          .... DFT(GTOs)
 Exchange Functional    Exchange        .... B88
   X-Alpha parameter    XAlpha          ....  0.666667
   Becke's b parameter  XBeta           ....  0.004200
 Correlation Functional Correlation     .... LYP
 LDA part of GGA corr.  LDAOpt          .... VWN-5
 Gradients option       PostSCFGGA      .... off
 Hybrid DFT is turned on
   Fraction HF Exchange ScalHFX         ....  0.200000
   Scaling of DF-GGA-X  ScalDFX         ....  0.720000
   Scaling of DF-GGA-C  ScalDFC         ....  0.810000
   Scaling of DF-LDA-C  ScalLDAC        ....  1.000000
   Perturbative correction              ....  0.000000
   Density functional embedding theory  .... OFF
   NL short-range parameter             ....  4.800000
 RI-approximation to the Coulomb term is turned on
   Number of AuxJ basis functions       .... 1330
   RIJ-COSX (HFX calculated with COS-X)).... on


General Settings:
 Integral files         IntName         .... NO2_NH2_2
 Hartree-Fock type      HFTyp           .... RHF
 Total Charge           Charge          ....    0
 Multiplicity           Mult            ....    1
 Number of Electrons    NEL             ....  164
 Basis Dimension        Dim             ....  406
 Nuclear Repulsion      ENuc            ....   1790.2049119404 Eh

Convergence Acceleration:
 DIIS                   CNVDIIS         .... on
   Start iteration      DIISMaxIt       ....     0
   Startup error        DIISStart       ....  0.200000
   # of expansion vecs  DIISMaxEq       ....     5
   Bias factor          DIISBfac        ....   1.050
   Max. coefficient     DIISMaxC        ....  10.000
 Trust-Rad. Augm. Hess. CNVTRAH         .... auto
   Auto Start mean grad. ratio tolernc. ....  1.125000
   Auto Start start iteration           ....    20
   Auto Start num. interpolation iter.  ....    10
   Max. Number of Micro iterations      ....    16
   Max. Number of Macro iterations      .... Maxiter - #DIIS iter
   Number of Davidson start vectors     ....     2
   Converg. threshold I  (grad. norm)   ....   2.000e-06
   Converg. threshold II (energy diff.) ....   1.000e-09
   Grad. Scal. Fac. for Micro threshold ....   0.100
   Minimum threshold for Micro iter.    ....   0.010
   NR start threshold (gradient norm)   ....   0.001
   Initial trust radius                 ....   0.400
   Minimum AH scaling param. (alpha)    ....   1.000
   Maximum AH scaling param. (alpha)    .... 1000.000
   Orbital update algorithm             .... Taylor
   White noise on init. David. guess    .... on
   Maximum white noise                  ....   0.010
   Quad. conv. algorithm                .... NR
 SOSCF                  CNVSOSCF        .... on
   Start iteration      SOSCFMaxIt      ....   150
   Startup grad/error   SOSCFStart      ....  0.001000
 Level Shifting         CNVShift        .... on
   Level shift para.    LevelShift      ....    0.2500
   Turn off err/grad.   ShiftErr        ....    0.0000
 Zerner damping         CNVZerner       .... off
 Static damping         CNVDamp         .... on
   Fraction old density DampFac         ....    0.8500
   Max. Damping (<1)    DampMax         ....    0.9800
   Min. Damping (>=0)   DampMin         ....    0.0000
   Turn off err/grad.   DampErr         ....    0.0300
 Fernandez-Rico         CNVRico         .... off

SCF Procedure:
 Maximum # iterations   MaxIter         ....   125
 SCF integral mode      SCFMode         .... Direct
   Integral package                     .... SHARK and LIBINT hybrid scheme
 Reset frequency        DirectResetFreq ....    20
 Integral Threshold     Thresh          ....  1.000e-12 Eh
 Primitive CutOff       TCut            ....  1.000e-14 Eh

Convergence Tolerance:
 Convergence Check Mode ConvCheckMode   .... Total+1el-Energy
 Convergence forced     ConvForced      .... 0
 Energy Change          TolE            ....  1.000e-09 Eh
 1-El. energy change                    ....  1.000e-06 Eh
 Orbital Gradient       TolG            ....  2.000e-06
 Orbital Rotation angle TolX            ....  2.000e-06
 DIIS Error             TolErr          ....  1.000e-08


Diagonalization of the overlap matrix:
Smallest eigenvalue                        ... 1.994e-04
Time for diagonalization                   ...    0.031 sec
Threshold for overlap eigenvalues          ... 1.000e-08
Number of eigenvalues below threshold      ... 0
Time for construction of square roots      ...    0.029 sec
Total time needed                          ...    0.061 sec

Time for model grid setup =    0.466 sec

------------------------------
INITIAL GUESS: MODEL POTENTIAL
------------------------------
Loading Hartree-Fock densities                     ... done
Calculating cut-offs                               ... done
Initializing the effective Hamiltonian             ... done
Setting up the integral package (SHARK)            ... done
Starting the Coulomb interaction                   ... done (   0.3 sec)
Reading the grid                                   ... done
Mapping shells                                     ... done
Starting the XC term evaluation                    ... done (   0.1 sec)
  promolecular density results
     # of electrons  =    163.990559435
     EX              =   -136.553310987
     EC              =     -5.614539908
     EX+EC           =   -142.167850894
Transforming the Hamiltonian                       ... done (   0.0 sec)
Diagonalizing the Hamiltonian                      ... done (   0.0 sec)
Back transforming the eigenvectors                 ... done (   0.0 sec)
Now organizing SCF variables                       ... done
                      ------------------
                      INITIAL GUESS DONE (   1.0 sec)
                      ------------------
-------------------
DFT GRID GENERATION
-------------------

General Integration Accuracy     IntAcc      ... 4.959
Radial Grid Type                 RadialGrid  ... OptM3 with GC (2021)
Angular Grid (max. ang.)         AngularGrid ... 6 (Lebedev-590)
Angular grid pruning method      GridPruning ... 4 (adaptive)
Weight generation scheme         WeightScheme... Becke
Basis function cutoff            BFCut       ... 1.0000e-12
Integration weight cutoff        WCut        ... 1.0000e-14
Angular grids for H and He will be reduced by one unit
Partially contracted basis set               ... off
Rotationally invariant grid construction     ... off

Total number of grid points                  ...   459422
Total number of batches                      ...     7202
Average number of points per batch           ...       63
Average number of grid points per atom       ...    12090
Time for grid setup =    9.775 sec

--------------------
COSX GRID GENERATION
--------------------

GRIDX 1
-------
General Integration Accuracy     IntAcc      ... 4.020
Radial Grid Type                 RadialGrid  ... OptM3 with GC (2021)
Angular Grid (max. ang.)         AngularGrid ... 2 (Lebedev-110)
Angular grid pruning method      GridPruning ... 4 (adaptive)
Weight generation scheme         WeightScheme... Becke
Basis function cutoff            BFCut       ... 1.0000e-12
Integration weight cutoff        WCut        ... 1.0000e-14
Angular grids for H and He will be reduced by one unit
Partially contracted basis set               ... on
Rotationally invariant grid construction     ... off

Total number of grid points                  ...    52498
Total number of batches                      ...      843
Average number of points per batch           ...       62
Average number of grid points per atom       ...     1382
UseSFitting                                  ... on

GRIDX 2
-------
General Integration Accuracy     IntAcc      ... 4.338
Radial Grid Type                 RadialGrid  ... OptM3 with GC (2021)
Angular Grid (max. ang.)         AngularGrid ... 3 (Lebedev-194)
Angular grid pruning method      GridPruning ... 4 (adaptive)
Weight generation scheme         WeightScheme... Becke
Basis function cutoff            BFCut       ... 1.0000e-12
Integration weight cutoff        WCut        ... 1.0000e-14
Angular grids for H and He will be reduced by one unit
Partially contracted basis set               ... on
Rotationally invariant grid construction     ... off

Total number of grid points                  ...   115302
Total number of batches                      ...     1821
Average number of points per batch           ...       63
Average number of grid points per atom       ...     3034
UseSFitting                                  ... on

GRIDX 3
-------
General Integration Accuracy     IntAcc      ... 4.871
Radial Grid Type                 RadialGrid  ... OptM3 with GC (2021)
Angular Grid (max. ang.)         AngularGrid ... 4 (Lebedev-302)
Angular grid pruning method      GridPruning ... 4 (adaptive)
Weight generation scheme         WeightScheme... Becke
Basis function cutoff            BFCut       ... 1.0000e-12
Integration weight cutoff        WCut        ... 1.0000e-14
Angular grids for H and He will be reduced by one unit
Partially contracted basis set               ... on
Rotationally invariant grid construction     ... off

Total number of grid points                  ...   213103
Total number of batches                      ...     3350
Average number of points per batch           ...       63
Average number of grid points per atom       ...     5608
UseSFitting                                  ... on

Time for X-Grid setup             =    7.325 sec

--------------
SCF ITERATIONS
--------------
ITER       Energy         Delta-E        Max-DP      RMS-DP      [F,P]     Damp
               ***  Starting incremental Fock matrix formation  ***
  0  -1028.5934911311   0.000000000000 0.04591250  0.00103122  0.2501672 0.8500
  1  -1028.7217715070  -0.128280375902 0.03861722  0.00092541  0.1628317 0.8500
                               ***Turning on DIIS***
  2  -1028.8050442823  -0.083272775327 0.02449902  0.00071992  0.1031489 0.8500
  3  -1028.8589014041  -0.053857121756 0.01377684  0.00048576  0.0699307 0.8500
  4  -1028.8985427906  -0.039641386592 0.01197381  0.00036980  0.0533657 0.8500
  5  -1028.9291141655  -0.030571374906 0.01055058  0.00030015  0.0436309 0.8500
  6  -1028.9538704284  -0.024756262832 0.00926785  0.00025075  0.0366422 0.8500
  7  -1028.9743536103  -0.020483181932 0.00812301  0.00021262  0.0310395 0.8500
  8  -1028.9915183007  -0.017164690360 0.04699907  0.00121180  0.0260973 0.0000
  9  -1029.0837089001  -0.092190599412 0.00475844  0.00004975  0.0048122 0.0000
 10  -1029.0837560978  -0.000047197742 0.00213750  0.00001887  0.0037931 0.0000
                      *** Initiating the SOSCF procedure ***
                           *** Shutting down DIIS ***
                      *** Re-Reading the Fockian *** 
                      *** Removing any level shift *** 
ITER      Energy       Delta-E        Grad      Rot      Max-DP    RMS-DP
 11  -1029.08378824  -0.0000321407  0.000171  0.000171  0.000486  0.000008
               *** Restarting incremental Fock matrix formation ***
 12  -1029.08377492   0.0000133150  0.000175  0.001897  0.000498  0.000010
 13  -1029.08377553  -0.0000006081  0.000197  0.000500  0.000425  0.000006
 14  -1029.08377618  -0.0000006477  0.000045  0.000521  0.000174  0.000003
 15  -1029.08377623  -0.0000000532  0.000055  0.000157  0.000215  0.000002
 16  -1029.08377628  -0.0000000465  0.000041  0.000305  0.000108  0.000002
 17  -1029.08377630  -0.0000000233  0.000025  0.000069  0.000095  0.000001
 18  -1029.08377631  -0.0000000106  0.000017  0.000151  0.000040  0.000001
 19  -1029.08377632  -0.0000000097  0.000012  0.000057  0.000041  0.000001
 20  -1029.08377632  -0.0000000016  0.000006  0.000029  0.000031  0.000000
 21  -1029.08377633  -0.0000000021  0.000002  0.000009  0.000012  0.000000
 22  -1029.08377633  -0.0000000003  0.000003  0.000006  0.000005  0.000000
 23  -1029.08377633  -0.0000000010  0.000001  0.000004  0.000002  0.000000
 24  -1029.08377633   0.0000000007  0.000001  0.000001  0.000002  0.000000
                  ***Gradient check signals convergence***
              ***Rediagonalizing the Fockian in SOSCF/NRSCF***

               *****************************************************
               *                     SUCCESS                       *
               *           SCF CONVERGED AFTER  25 CYCLES          *
               *****************************************************

Old exchange energy                            =    -27.602296807 Eh
New exchange energy                            =    -27.602288503 Eh
Exchange energy change after final integration =      0.000008304 Eh
Total energy after final integration           =  -1029.083768023 Eh
Final COS-X integration done in                =    19.013 sec

----------------
TOTAL SCF ENERGY
----------------

Total Energy       :        -1029.08376802 Eh          -28002.79296 eV

Components:
Nuclear Repulsion  :         1790.20491194 Eh           48713.95222 eV
Electronic Energy  :        -2819.28867996 Eh          -76716.74519 eV
One Electron Energy:        -4951.79144490 Eh         -134745.09552 eV
Two Electron Energy:         2132.50276494 Eh           58028.35034 eV
Max COSX asymmetry :            0.00000046 Eh               0.00001 eV

Virial components:
Potential Energy   :        -2048.11871916 Eh          -55732.14372 eV
Kinetic Energy     :         1019.03495114 Eh           27729.35075 eV
Virial Ratio       :            2.00986111


DFT components:
N(Alpha)           :       81.999999355997 electrons
N(Beta)            :       81.999999355997 electrons
N(Total)           :      163.999998711994 electrons
E(X)               :     -109.764188530348 Eh       
E(C)               :       -6.605479692756 Eh       
E(XC)              :     -116.369668223104 Eh       
DFET-embed. en.    :        0.000000000000 Eh       

---------------
SCF CONVERGENCE
---------------

  Last Energy change         ...    9.0040e-11  Tolerance :   1.0000e-09
  Last MAX-Density change    ...    3.5527e-15  Tolerance :   1.0000e-08
  Last RMS-Density change    ...    4.0710e-17  Tolerance :   1.0000e-09
  Last Orbital Gradient      ...    1.4972e-07  Tolerance :   2.0000e-06
  Last Orbital Rotation      ...    2.1322e-06  Tolerance :   2.0000e-06

             **** THE GBW FILE WAS UPDATED (NO2_NH2_2.gbw) ****
             **** DENSITY NO2_NH2_2.scfp WAS UPDATED ****
             **** ENERGY FILE WAS UPDATED (NO2_NH2_2.en.tmp) ****
             **** THE GBW FILE WAS UPDATED (NO2_NH2_2.gbw) ****
             **** DENSITY NO2_NH2_2.scfp WAS UPDATED ****
----------------
ORBITAL ENERGIES
----------------

  NO   OCC          E(Eh)            E(eV) 
   0   2.0000     -19.136237      -520.7235 
   1   2.0000     -19.135954      -520.7158 
   2   2.0000     -14.534756      -395.5108 
   3   2.0000     -14.366792      -390.9403 
   4   2.0000     -10.246307      -278.8162 
   5   2.0000     -10.226675      -278.2820 
   6   2.0000     -10.216163      -277.9959 
   7   2.0000     -10.211480      -277.8685 
   8   2.0000     -10.211176      -277.8602 
   9   2.0000     -10.208290      -277.7817 
  10   2.0000     -10.205846      -277.7152 
  11   2.0000     -10.204831      -277.6876 
  12   2.0000     -10.202402      -277.6215 
  13   2.0000     -10.202101      -277.6133 
  14   2.0000     -10.200367      -277.5661 
  15   2.0000     -10.199250      -277.5357 
  16   2.0000     -10.197020      -277.4750 
  17   2.0000     -10.196960      -277.4734 
  18   2.0000     -10.195909      -277.4448 
  19   2.0000     -10.195751      -277.4405 
  20   2.0000     -10.195606      -277.4365 
  21   2.0000     -10.193147      -277.3696 
  22   2.0000     -10.192923      -277.3635 
  23   2.0000     -10.184216      -277.1266 
  24   2.0000      -1.194915       -32.5153 
  25   2.0000      -1.020355       -27.7653 
  26   2.0000      -0.929712       -25.2987 
  27   2.0000      -0.890188       -24.2233 
  28   2.0000      -0.856021       -23.2935 
  29   2.0000      -0.831411       -22.6239 
  30   2.0000      -0.823041       -22.3961 
  31   2.0000      -0.797921       -21.7125 
  32   2.0000      -0.776467       -21.1287 
  33   2.0000      -0.753144       -20.4941 
  34   2.0000      -0.744377       -20.2555 
  35   2.0000      -0.726559       -19.7707 
  36   2.0000      -0.710858       -19.3434 
  37   2.0000      -0.676316       -18.4035 
  38   2.0000      -0.639286       -17.3958 
  39   2.0000      -0.631456       -17.1828 
  40   2.0000      -0.620248       -16.8778 
  41   2.0000      -0.610697       -16.6179 
  42   2.0000      -0.594563       -16.1789 
  43   2.0000      -0.563648       -15.3377 
  44   2.0000      -0.557297       -15.1648 
  45   2.0000      -0.537948       -14.6383 
  46   2.0000      -0.531209       -14.4549 
  47   2.0000      -0.523368       -14.2416 
  48   2.0000      -0.515505       -14.0276 
  49   2.0000      -0.514893       -14.0109 
  50   2.0000      -0.509525       -13.8649 
  51   2.0000      -0.499260       -13.5856 
  52   2.0000      -0.482130       -13.1194 
  53   2.0000      -0.475815       -12.9476 
  54   2.0000      -0.470527       -12.8037 
  55   2.0000      -0.451619       -12.2892 
  56   2.0000      -0.444276       -12.0894 
  57   2.0000      -0.441347       -12.0097 
  58   2.0000      -0.424966       -11.5639 
  59   2.0000      -0.420079       -11.4309 
  60   2.0000      -0.416342       -11.3292 
  61   2.0000      -0.407070       -11.0769 
  62   2.0000      -0.402439       -10.9509 
  63   2.0000      -0.397739       -10.8230 
  64   2.0000      -0.387330       -10.5398 
  65   2.0000      -0.386943       -10.5292 
  66   2.0000      -0.381801       -10.3893 
  67   2.0000      -0.370055       -10.0697 
  68   2.0000      -0.357844        -9.7374 
  69   2.0000      -0.352219        -9.5844 
  70   2.0000      -0.338369        -9.2075 
  71   2.0000      -0.329260        -8.9596 
  72   2.0000      -0.325519        -8.8578 
  73   2.0000      -0.297177        -8.0866 
  74   2.0000      -0.288188        -7.8420 
  75   2.0000      -0.287956        -7.8357 
  76   2.0000      -0.280808        -7.6412 
  77   2.0000      -0.269748        -7.3402 
  78   2.0000      -0.262581        -7.1452 
  79   2.0000      -0.242327        -6.5941 
  80   2.0000      -0.228813        -6.2263 
  81   2.0000      -0.185569        -5.0496 
  82   0.0000      -0.093490        -2.5440 
  83   0.0000      -0.054627        -1.4865 
  84   0.0000      -0.038237        -1.0405 
  85   0.0000      -0.018539        -0.5045 
  86   0.0000      -0.004929        -0.1341 
  87   0.0000       0.026958         0.7336 
  88   0.0000       0.031629         0.8607 
  89   0.0000       0.033368         0.9080 
  90   0.0000       0.047485         1.2921 
  91   0.0000       0.063846         1.7373 
  92   0.0000       0.069276         1.8851 
  93   0.0000       0.080995         2.2040 
  94   0.0000       0.085153         2.3171 
  95   0.0000       0.088574         2.4102 
  96   0.0000       0.102586         2.7915 
  97   0.0000       0.105166         2.8617 
  98   0.0000       0.108635         2.9561 
  99   0.0000       0.128762         3.5038 
 100   0.0000       0.130744         3.5577 
 101   0.0000       0.156276         4.2525 
 102   0.0000       0.159598         4.3429 
 103   0.0000       0.188902         5.1403 
 104   0.0000       0.190707         5.1894 
 105   0.0000       0.202485         5.5099 
 106   0.0000       0.213820         5.8183 
 107   0.0000       0.224736         6.1154 
 108   0.0000       0.231555         6.3009 
 109   0.0000       0.233233         6.3466 
 110   0.0000       0.241608         6.5745 
 111   0.0000       0.248185         6.7535 
 112   0.0000       0.259167         7.0523 
 113   0.0000       0.264264         7.1910 
 114   0.0000       0.268041         7.2938 
 115   0.0000       0.275559         7.4983 
 116   0.0000       0.279667         7.6101 
 117   0.0000       0.294376         8.0104 
 118   0.0000       0.296834         8.0773 
 119   0.0000       0.308278         8.3887 
 120   0.0000       0.316997         8.6259 
 121   0.0000       0.321212         8.7406 
 122   0.0000       0.325305         8.8520 
 123   0.0000       0.331767         9.0278 
 124   0.0000       0.338772         9.2185 
 125   0.0000       0.341984         9.3059 
 126   0.0000       0.345594         9.4041 
 127   0.0000       0.350998         9.5511 
 128   0.0000       0.361297         9.8314 
 129   0.0000       0.365662         9.9502 
 130   0.0000       0.376179        10.2363 
 131   0.0000       0.387630        10.5480 
 132   0.0000       0.401905        10.9364 
 133   0.0000       0.407174        11.0798 
 134   0.0000       0.410876        11.1805 
 135   0.0000       0.425833        11.5875 
 136   0.0000       0.434032        11.8106 
 137   0.0000       0.441413        12.0115 
 138   0.0000       0.443741        12.0748 
 139   0.0000       0.452246        12.3062 
 140   0.0000       0.454932        12.3793 
 141   0.0000       0.461236        12.5509 
 142   0.0000       0.464517        12.6401 
 143   0.0000       0.469787        12.7836 
 144   0.0000       0.470078        12.7915 
 145   0.0000       0.474304        12.9065 
 146   0.0000       0.478989        13.0339 
 147   0.0000       0.481024        13.0893 
 148   0.0000       0.489464        13.3190 
 149   0.0000       0.497159        13.5284 
 150   0.0000       0.500637        13.6230 
 151   0.0000       0.504525        13.7288 
 152   0.0000       0.507727        13.8160 
 153   0.0000       0.527783        14.3617 
 154   0.0000       0.529722        14.4145 
 155   0.0000       0.536415        14.5966 
 156   0.0000       0.536803        14.6071 
 157   0.0000       0.543962        14.8019 
 158   0.0000       0.549809        14.9611 
 159   0.0000       0.564717        15.3667 
 160   0.0000       0.575298        15.6547 
 161   0.0000       0.587041        15.9742 
 162   0.0000       0.589981        16.0542 
 163   0.0000       0.600777        16.3480 
 164   0.0000       0.610093        16.6015 
 165   0.0000       0.621605        16.9147 
 166   0.0000       0.627212        17.0673 
 167   0.0000       0.635175        17.2840 
 168   0.0000       0.637543        17.3484 
 169   0.0000       0.643157        17.5012 
 170   0.0000       0.649260        17.6673 
 171   0.0000       0.649534        17.6747 
 172   0.0000       0.658605        17.9216 
 173   0.0000       0.662595        18.0301 
 174   0.0000       0.663129        18.0446 
 175   0.0000       0.666235        18.1292 
 176   0.0000       0.667195        18.1553 
 177   0.0000       0.678338        18.4585 
 178   0.0000       0.692330        18.8393 
 179   0.0000       0.696707        18.9584 
 180   0.0000       0.704867        19.1804 
 181   0.0000       0.716942        19.5090 
 182   0.0000       0.719734        19.5850 
 183   0.0000       0.723217        19.6797 
 184   0.0000       0.728295        19.8179 
 185   0.0000       0.734058        19.9747 
 186   0.0000       0.737826        20.0773 
 187   0.0000       0.750868        20.4321 
 188   0.0000       0.755744        20.5648 
 189   0.0000       0.757772        20.6200 
 190   0.0000       0.763440        20.7743 
 191   0.0000       0.764312        20.7980 
 192   0.0000       0.770410        20.9639 
 193   0.0000       0.778358        21.1802 
 194   0.0000       0.797266        21.6947 
 195   0.0000       0.800559        21.7843 
 196   0.0000       0.801627        21.8134 
 197   0.0000       0.807228        21.9658 
 198   0.0000       0.823373        22.4051 
 199   0.0000       0.837817        22.7982 
 200   0.0000       0.849960        23.1286 
 201   0.0000       0.861603        23.4454 
 202   0.0000       0.862003        23.4563 
 203   0.0000       0.869601        23.6631 
 204   0.0000       0.883067        24.0295 
 205   0.0000       0.898339        24.4451 
 206   0.0000       0.909081        24.7374 
 207   0.0000       0.923871        25.1398 
 208   0.0000       0.952432        25.9170 
 209   0.0000       0.963289        26.2124 
 210   0.0000       0.996578        27.1183 
 211   0.0000       0.999701        27.2032 
 212   0.0000       1.007083        27.4041 
 213   0.0000       1.019326        27.7373 
 214   0.0000       1.034197        28.1419 
 215   0.0000       1.052903        28.6509 
 216   0.0000       1.059200        28.8223 
 217   0.0000       1.082945        29.4684 
 218   0.0000       1.099057        29.9069 
 219   0.0000       1.122734        30.5512 
 220   0.0000       1.126948        30.6658 
 221   0.0000       1.134523        30.8719 
 222   0.0000       1.140747        31.0413 
 223   0.0000       1.167072        31.7577 
 224   0.0000       1.168010        31.7832 
 225   0.0000       1.188921        32.3522 
 226   0.0000       1.193854        32.4864 
 227   0.0000       1.202871        32.7318 
 228   0.0000       1.208336        32.8805 
 229   0.0000       1.209098        32.9012 
 230   0.0000       1.223462        33.2921 
 231   0.0000       1.225489        33.3472 
 232   0.0000       1.230299        33.4781 
 233   0.0000       1.231980        33.5239 
 234   0.0000       1.236092        33.6358 
 235   0.0000       1.246968        33.9317 
 236   0.0000       1.248386        33.9703 
 237   0.0000       1.249107        33.9899 
 238   0.0000       1.258450        34.2442 
 239   0.0000       1.265368        34.4324 
 240   0.0000       1.273227        34.6463 
 241   0.0000       1.286164        34.9983 
 242   0.0000       1.291877        35.1537 
 243   0.0000       1.296722        35.2856 
 244   0.0000       1.297793        35.3147 
 245   0.0000       1.305384        35.5213 
 246   0.0000       1.319548        35.9067 
 247   0.0000       1.337180        36.3865 
 248   0.0000       1.341156        36.4947 
 249   0.0000       1.349275        36.7156 
 250   0.0000       1.353620        36.8339 
 251   0.0000       1.377402        37.4810 
 252   0.0000       1.395713        37.9793 
 253   0.0000       1.405580        38.2478 
 254   0.0000       1.410105        38.3709 
 255   0.0000       1.431280        38.9471 
 256   0.0000       1.441454        39.2239 
 257   0.0000       1.476321        40.1727 
 258   0.0000       1.483863        40.3780 
 259   0.0000       1.505478        40.9662 
 260   0.0000       1.516450        41.2647 
 261   0.0000       1.541217        41.9387 
 262   0.0000       1.616874        43.9974 
 263   0.0000       1.623878        44.1880 
 264   0.0000       1.649996        44.8987 
 265   0.0000       1.651457        44.9384 
 266   0.0000       1.654871        45.0313 
 267   0.0000       1.661521        45.2123 
 268   0.0000       1.678671        45.6790 
 269   0.0000       1.678789        45.6822 
 270   0.0000       1.684899        45.8484 
 271   0.0000       1.686033        45.8793 
 272   0.0000       1.702037        46.3148 
 273   0.0000       1.718295        46.7572 
 274   0.0000       1.721587        46.8468 
 275   0.0000       1.721782        46.8521 
 276   0.0000       1.725433        46.9514 
 277   0.0000       1.729355        47.0581 
 278   0.0000       1.733439        47.1693 
 279   0.0000       1.747769        47.5592 
 280   0.0000       1.749759        47.6134 
 281   0.0000       1.761107        47.9222 
 282   0.0000       1.761802        47.9411 
 283   0.0000       1.766394        48.0660 
 284   0.0000       1.768851        48.1329 
 285   0.0000       1.773781        48.2670 
 286   0.0000       1.778914        48.4067 
 287   0.0000       1.789236        48.6876 
 288   0.0000       1.793766        48.8108 
 289   0.0000       1.811384        49.2903 
 290   0.0000       1.814079        49.3636 
 291   0.0000       1.822091        49.5816 
 292   0.0000       1.840414        50.0802 
 293   0.0000       1.863566        50.7102 
 294   0.0000       1.871208        50.9182 
 295   0.0000       1.873088        50.9693 
 296   0.0000       1.888941        51.4007 
 297   0.0000       1.912047        52.0294 
 298   0.0000       1.913258        52.0624 
 299   0.0000       1.921569        52.2886 
 300   0.0000       1.943906        52.8964 
 301   0.0000       1.949909        53.0597 
 302   0.0000       1.963381        53.4263 
 303   0.0000       1.971248        53.6404 
 304   0.0000       1.979173        53.8560 
 305   0.0000       1.986491        54.0552 
 306   0.0000       1.994597        54.2757 
 307   0.0000       2.018000        54.9126 
 308   0.0000       2.022724        55.0411 
 309   0.0000       2.040408        55.5223 
 310   0.0000       2.045761        55.6680 
 311   0.0000       2.052223        55.8438 
 312   0.0000       2.057723        55.9935 
 313   0.0000       2.059326        56.0371 
 314   0.0000       2.066863        56.2422 
 315   0.0000       2.084143        56.7124 
 316   0.0000       2.096636        57.0524 
 317   0.0000       2.103322        57.2343 
 318   0.0000       2.106500        57.3208 
 319   0.0000       2.134419        58.0805 
 320   0.0000       2.147426        58.4344 
 321   0.0000       2.155311        58.6490 
 322   0.0000       2.158622        58.7391 
 323   0.0000       2.176295        59.2200 
 324   0.0000       2.193439        59.6865 
 325   0.0000       2.198843        59.8336 
 326   0.0000       2.209972        60.1364 
 327   0.0000       2.216406        60.3115 
 328   0.0000       2.218293        60.3628 
 329   0.0000       2.229895        60.6785 
 330   0.0000       2.237854        60.8951 
 331   0.0000       2.257694        61.4350 
 332   0.0000       2.261008        61.5251 
 333   0.0000       2.263190        61.5845 
 334   0.0000       2.265999        61.6610 
 335   0.0000       2.278762        62.0083 
 336   0.0000       2.296501        62.4910 
 337   0.0000       2.302664        62.6587 
 338   0.0000       2.318507        63.0898 
 339   0.0000       2.326455        63.3061 
 340   0.0000       2.364780        64.3489 
 341   0.0000       2.370563        64.5063 
 342   0.0000       2.382194        64.8228 
 343   0.0000       2.396882        65.2225 
 344   0.0000       2.410897        65.6039 
 345   0.0000       2.422043        65.9072 
 346   0.0000       2.433834        66.2280 
 347   0.0000       2.446540        66.5737 
 348   0.0000       2.467208        67.1361 
 349   0.0000       2.482539        67.5533 
 350   0.0000       2.497145        67.9508 
 351   0.0000       2.526758        68.7566 
 352   0.0000       2.534484        68.9668 
 353   0.0000       2.544869        69.2494 
 354   0.0000       2.549844        69.3848 
 355   0.0000       2.575400        70.0802 
 356   0.0000       2.596441        70.6527 
 357   0.0000       2.596870        70.6644 
 358   0.0000       2.605116        70.8888 
 359   0.0000       2.620625        71.3108 
 360   0.0000       2.628252        71.5184 
 361   0.0000       2.629890        71.5629 
 362   0.0000       2.652313        72.1731 
 363   0.0000       2.668262        72.6071 
 364   0.0000       2.668794        72.6216 
 365   0.0000       2.676322        72.8264 
 366   0.0000       2.681163        72.9582 
 367   0.0000       2.687505        73.1307 
 368   0.0000       2.693523        73.2945 
 369   0.0000       2.710774        73.7639 
 370   0.0000       2.718893        73.9849 
 371   0.0000       2.724847        74.1469 
 372   0.0000       2.733139        74.3725 
 373   0.0000       2.759576        75.0919 
 374   0.0000       2.770814        75.3977 
 375   0.0000       2.775196        75.5169 
 376   0.0000       2.780325        75.6565 
 377   0.0000       2.811780        76.5124 
 378   0.0000       2.823558        76.8329 
 379   0.0000       2.854679        77.6798 
 380   0.0000       2.871424        78.1354 
 381   0.0000       2.898928        78.8838 
 382   0.0000       2.914648        79.3116 
 383   0.0000       2.936046        79.8939 
 384   0.0000       2.958170        80.4959 
 385   0.0000       2.970956        80.8438 
 386   0.0000       2.994430        81.4826 
 387   0.0000       3.011117        81.9367 
 388   0.0000       3.029413        82.4345 
 389   0.0000       3.064719        83.3952 
 390   0.0000       3.073507        83.6344 
 391   0.0000       3.109140        84.6040 
 392   0.0000       3.146421        85.6185 
 393   0.0000       3.189829        86.7997 
 394   0.0000       3.251432        88.4760 
 395   0.0000       3.287249        89.4506 
 396   0.0000       3.302395        89.8627 
 397   0.0000       3.349493        91.1443 
 398   0.0000       3.375670        91.8567 
 399   0.0000       3.447532        93.8121 
 400   0.0000       3.477530        94.6284 
 401   0.0000       3.526806        95.9693 
 402   0.0000       3.586408        97.5911 
 403   0.0000       3.640756        99.0700 
 404   0.0000       3.784365       102.9778 
 405   0.0000       3.786795       103.0439 

                    ********************************
                    * MULLIKEN POPULATION ANALYSIS *
                    ********************************

-----------------------
MULLIKEN ATOMIC CHARGES
-----------------------
   0 C :    0.073141
   1 C :   -0.022649
   2 C :   -0.033128
   3 C :    0.074313
   4 C :   -0.016545
   5 C :   -0.029070
   6 C :    0.051751
   7 C :    0.105889
   8 C :   -0.049153
   9 C :   -0.021572
  10 C :    0.057415
  11 C :   -0.004587
  12 C :   -0.046907
  13 C :    0.081868
  14 C :    0.052236
  15 C :    0.069808
  16 C :    0.040249
  17 C :   -0.049131
  18 C :    0.057040
  19 C :    0.039389
  20 N :   -0.087997
  21 N :    0.233099
[...]
    104       0.000189   0.000007   0.000970  -0.031671   0.000008   0.000002
    105      -0.000983  -0.030165  -0.000304   0.000152  -0.006880   0.011830
    106      -0.000649  -0.021335  -0.000237   0.000102  -0.003993   0.007880
    107       0.000013   0.000522   0.000007  -0.000002   0.000051  -0.000171
    108       0.000003  -0.000464  -0.000002  -0.000001   0.020173   0.013303
    109      -0.000013   0.000673   0.000043   0.000222   0.584038   0.809085
    110       0.000001  -0.000070  -0.000003  -0.000017  -0.044663  -0.062461
    111       0.000014  -0.000847  -0.000016  -0.000178  -0.718304   0.517695
    112       0.000023   0.001069  -0.000007  -0.000106  -0.370725   0.256356
    113      -0.000001  -0.000113  -0.000000   0.000001   0.001599  -0.000287


-----------
IR SPECTRUM
-----------

 Mode   freq       eps      Int      T**2         TX        TY        TZ
       cm**-1   L/(mol*cm) km/mol    a.u.
----------------------------------------------------------------------------
  8:     21.92   0.000013    0.06  0.000183  ( 0.000102  0.000342  0.013523)
  9:     29.75   0.000003    0.02  0.000032  (-0.000457 -0.000049 -0.005651)
 10:     62.82   0.000761    3.84  0.003778  ( 0.002346 -0.004759 -0.061238)
 11:     67.56   0.000097    0.49  0.000446  (-0.005225 -0.020415  0.001441)
 12:    100.63   0.000009    0.04  0.000027  (-0.000241  0.000602  0.005191)
 13:    122.70   0.000257    1.30  0.000653  ( 0.001161  0.004093  0.025196)
 14:    124.36   0.000775    3.92  0.001945  ( 0.020350  0.038932 -0.003838)
 15:    161.73   0.001134    5.73  0.002189  (-0.001352  0.003133  0.046659)
 16:    201.92   0.001635    8.26  0.002527  ( 0.002385 -0.004163 -0.050044)
 17:    216.31   0.000004    0.02  0.000006  (-0.002291 -0.000593 -0.000013)
 18:    220.33   0.000696    3.52  0.000986  (-0.001324  0.002566  0.031262)
 19:    252.57   0.000277    1.40  0.000342  (-0.017307  0.006384 -0.001358)
 20:    262.43   0.000018    0.09  0.000021  ( 0.000259 -0.000546 -0.004562)
 21:    299.91   0.000251    1.27  0.000262  (-0.000648  0.001230  0.016112)
 22:    310.25   0.000617    3.12  0.000620  (-0.014290  0.020279 -0.002194)
 23:    347.52   0.000230    1.16  0.000207  ( 0.009373 -0.010859  0.001023)
 24:    384.55   0.000482    2.43  0.000391  ( 0.000904 -0.001719 -0.019672)
 25:    422.83   0.002794   14.12  0.002062  ( 0.025045 -0.037685  0.003851)
 26:    448.05   0.000639    3.23  0.000445  (-0.017136  0.012223 -0.001463)
 27:    449.98   0.000006    0.03  0.000004  ( 0.000798 -0.000445  0.001838)
 28:    495.17   0.000306    1.54  0.000193  ( 0.000562 -0.001046 -0.013829)
 29:    503.81   0.000578    2.92  0.000358  ( 0.005535 -0.018032  0.001561)
 30:    520.70   0.000185    0.94  0.000111  ( 0.002757 -0.010136  0.000863)
 31:    525.03   0.000002    0.01  0.000001  (-0.000009 -0.000096 -0.001096)
 32:    529.66   0.000928    4.69  0.000547  (-0.000442  0.023307 -0.001788)
 33:    560.07   0.000383    1.94  0.000214  (-0.000526  0.001054  0.014566)
 34:    570.70   0.000685    3.46  0.000375  ( 0.001070 -0.001971 -0.019225)
 35:    580.03   0.001006    5.08  0.000541  (-0.008361  0.021591 -0.002291)
 36:    603.28   0.001607    8.12  0.000832  ( 0.014123 -0.025030  0.002352)
 37:    633.91   0.000751    3.79  0.000369  ( 0.008526 -0.017149  0.001649)
 38:    668.05   0.000025    0.12  0.000011  (-0.000165  0.000360  0.003367)
 39:    701.44   0.000347    1.76  0.000155  (-0.009514  0.007947 -0.000949)
 40:    716.94   0.001139    5.75  0.000496  ( 0.000650 -0.001405 -0.022209)
 41:    735.68   0.000542    2.74  0.000230  (-0.015000 -0.002169 -0.000317)
 42:    741.25   0.000121    0.61  0.000051  ( 0.000167 -0.000429 -0.007118)
 43:    760.46   0.002685   13.57  0.001102  (-0.001187  0.002633  0.033066)
 44:    774.71   0.001977    9.99  0.000796  ( 0.021463 -0.018180  0.002229)
 45:    794.74   0.003718   18.79  0.001460  (-0.031337  0.021677 -0.002833)
 46:    815.19   0.000090    0.45  0.000034  (-0.000265  0.000697  0.005812)
 47:    819.63   0.003285   16.60  0.001251  ( 0.002729 -0.035150  0.002789)
 48:    830.70   0.000491    2.48  0.000184  (-0.000527  0.000973  0.013537)
 49:    846.85   0.005119   25.87  0.001886  ( 0.001558 -0.003584 -0.043254)
 50:    858.95   0.000141    0.71  0.000051  (-0.007120 -0.000596 -0.000362)
 51:    870.42   0.007257   36.67  0.002602  ( 0.001920 -0.003539 -0.050847)
 52:    881.02   0.002747   13.88  0.000973  (-0.001186  0.002609  0.031060)
 53:    888.75   0.002878   14.54  0.001010  ( 0.001181 -0.002508 -0.031666)
 54:    944.71   0.000733    3.70  0.000242  (-0.000524  0.001149  0.015505)
 55:    976.18   0.004901   24.77  0.001567  ( 0.001318 -0.002756 -0.039465)
 56:    980.83   0.022464  113.53  0.007147  (-0.042184  0.072927 -0.007035)
 57:    991.32   0.000476    2.41  0.000150  (-0.000496  0.000996  0.012197)
 58:    993.84   0.000766    3.87  0.000241  (-0.000505  0.001109  0.015463)
 59:   1000.35   0.001031    5.21  0.000321  ( 0.010447 -0.014491  0.001537)
 60:   1009.34   0.000621    3.14  0.000192  ( 0.000893 -0.001679 -0.013726)
 61:   1010.12   0.027463  138.78  0.008484  (-0.051163  0.076200 -0.007751)
 62:   1014.76   0.000914    4.62  0.000281  ( 0.000529 -0.001292 -0.016705)
 63:   1017.30   0.000815    4.12  0.000250  ( 0.000277 -0.000773 -0.015792)
 64:   1055.39   0.007375   37.27  0.002181  (-0.015797  0.043769 -0.003919)
 65:   1118.53   0.000298    1.50  0.000083  ( 0.000448 -0.009077  0.000700)
 66:   1134.21   0.000130    0.66  0.000036  ( 0.005159 -0.002992  0.000404)
 67:   1181.27   0.000221    1.12  0.000058  ( 0.004649 -0.006035  0.000616)
 68:   1189.02   0.000129    0.65  0.000034  ( 0.005773 -0.000623  0.000229)
 69:   1204.01   0.006886   34.80  0.001785  ( 0.021326 -0.036289  0.003605)
 70:   1210.47   0.004276   21.61  0.001102  ( 0.033147 -0.001296  0.001377)
 71:   1233.99   0.000158    0.80  0.000040  (-0.005604 -0.002932  0.000043)
 72:   1254.15   0.131282  663.45  0.032666  ( 0.098491 -0.150773  0.015272)
 73:   1263.21   0.040085  202.57  0.009903  (-0.046081  0.087782 -0.008570)
 74:   1272.53   0.003777   19.09  0.000926  ( 0.014971 -0.026369  0.002585)
 75:   1279.08   0.031182  157.58  0.007608  ( 0.046273 -0.073551  0.007526)
 76:   1298.58   0.021693  109.63  0.005213  (-0.043939  0.056970 -0.006078)
 77:   1320.26   0.003894   19.68  0.000920  (-0.020852  0.021892 -0.002519)
 78:   1333.59   0.019709   99.60  0.004612  ( 0.027021 -0.062039  0.005744)
 79:   1335.63   0.019806  100.09  0.004628  (-0.037572  0.056417 -0.005752)
 80:   1370.42   0.003086   15.59  0.000703  (-0.009565  0.024615 -0.002299)
 81:   1381.43   0.001745    8.82  0.000394  ( 0.019613 -0.002931  0.000973)
 82:   1397.88   0.243716  1231.64  0.054407  ( 0.152990 -0.175003  0.019371)
 83:   1405.91   0.000770    3.89  0.000171  ( 0.006109 -0.011511  0.001089)
 84:   1414.72   0.008416   42.53  0.001857  (-0.035220  0.024605 -0.003266)
 85:   1427.11   0.005760   29.11  0.001259  ( 0.009276 -0.034128  0.002957)
 86:   1444.71   0.000366    1.85  0.000079  ( 0.002527 -0.008493  0.000737)
 87:   1469.04   0.003427   17.32  0.000728  ( 0.022065 -0.015397  0.001987)
 88:   1507.43   0.000511    2.58  0.000106  (-0.005767 -0.008507  0.000434)
 89:   1535.11   0.002263   11.44  0.000460  ( 0.018818 -0.010186  0.001485)
 90:   1548.33   0.012020   60.75  0.002423  ( 0.017721 -0.045728  0.004195)
 91:   1571.45   0.006898   34.86  0.001370  (-0.025731  0.026432 -0.003011)
 92:   1610.04   0.001748    8.84  0.000339  ( 0.016280  0.008593 -0.000017)
 93:   1621.19   0.000057    0.29  0.000011  (-0.000161  0.003293 -0.000296)
 94:   1625.12   0.092846  469.21  0.017829  (-0.111024  0.073578 -0.009411)
 95:   1644.34   0.080640  407.52  0.015304  ( 0.043057 -0.115468  0.010822)
 96:   1658.25   0.004079   20.61  0.000768  ( 0.027444  0.003740  0.000641)
 97:   1665.34   0.064988  328.42  0.012178  (-0.028032  0.106321 -0.009378)
 98:   1692.29   0.035790  180.87  0.006600  ( 0.009039 -0.080431  0.006998)
 99:   1710.70   0.179265  905.93  0.032701  ( 0.101376 -0.148972  0.015218)
100:   3168.76   0.000364    1.84  0.000036  (-0.005927  0.000776 -0.000281)
101:   3172.57   0.001157    5.85  0.000114  ( 0.009616 -0.004562  0.000715)
102:   3173.26   0.003881   19.61  0.000382  ( 0.019522  0.000298  0.000717)
103:   3175.78   0.002211   11.17  0.000217  ( 0.013386 -0.006089  0.000977)
104:   3177.69   0.001122    5.67  0.000110  (-0.010373 -0.001588 -0.000279)
105:   3181.85   0.001512    7.64  0.000148  (-0.008266  0.008890 -0.000976)
106:   3195.11   0.005501   27.80  0.000537  (-0.006425 -0.022224  0.001448)
107:   3198.23   0.002300   11.62  0.000224  ( 0.005258  0.014002 -0.000862)
108:   3205.40   0.000942    4.76  0.000092  ( 0.009175  0.002749  0.000099)
109:   3217.97   0.003479   17.58  0.000337  ( 0.018146 -0.002699  0.000895)
110:   3223.41   0.000442    2.23  0.000043  (-0.005831  0.002933 -0.000467)
111:   3254.08   0.003252   16.44  0.000312  (-0.009348  0.014903 -0.001552)
112:   3606.90   0.060421  305.34  0.005228  (-0.044561  0.056617 -0.006034)
113:   3735.86   0.015706   79.37  0.001312  ( 0.003529  0.035951 -0.002650)

* The epsilon (eps) is given for a Dirac delta lineshape.
** The dipole moment derivative (T) already includes vibrational overlap.

The first frequency considered to be a vibration is 8
The total number of vibrations considered is 106


--------------------------
THERMOCHEMISTRY AT 298.15K
--------------------------

Temperature         ... 298.15 K
Pressure            ... 1.00 atm
Total Mass          ... 314.34 AMU

Throughout the following assumptions are being made:
  (1) The electronic state is orbitally nondegenerate
  (2) There are no thermally accessible electronically excited states
  (3) Hindered rotations indicated by low frequency modes are not
      treated as such but are treated as vibrations and this may
      cause some error
  (4) All equations used are the standard statistical mechanics
      equations for an ideal gas
  (5) All vibrations are strictly harmonic

freq.      21.92  E(vib)   ...       0.56 
freq.      29.75  E(vib)   ...       0.55 
freq.      62.82  E(vib)   ...       0.51 
freq.      67.56  E(vib)   ...       0.50 
freq.     100.63  E(vib)   ...       0.46 
freq.     122.70  E(vib)   ...       0.43 
freq.     124.36  E(vib)   ...       0.43 
freq.     161.73  E(vib)   ...       0.39 
freq.     201.92  E(vib)   ...       0.35 
freq.     216.31  E(vib)   ...       0.34 
freq.     220.33  E(vib)   ...       0.33 
freq.     252.57  E(vib)   ...       0.30 
freq.     262.43  E(vib)   ...       0.29 
freq.     299.91  E(vib)   ...       0.26 
freq.     310.25  E(vib)   ...       0.26 
freq.     347.52  E(vib)   ...       0.23 
freq.     384.55  E(vib)   ...       0.20 
freq.     422.83  E(vib)   ...       0.18 
freq.     448.05  E(vib)   ...       0.17 
freq.     449.98  E(vib)   ...       0.17 
freq.     495.17  E(vib)   ...       0.14 
freq.     503.81  E(vib)   ...       0.14 
freq.     520.70  E(vib)   ...       0.13 
freq.     525.03  E(vib)   ...       0.13 
freq.     529.66  E(vib)   ...       0.13 
freq.     560.07  E(vib)   ...       0.12 
freq.     570.70  E(vib)   ...       0.11 
freq.     580.03  E(vib)   ...       0.11 
freq.     603.28  E(vib)   ...       0.10 
freq.     633.91  E(vib)   ...       0.09 
freq.     668.05  E(vib)   ...       0.08 
freq.     701.44  E(vib)   ...       0.07 
freq.     716.94  E(vib)   ...       0.07 
freq.     735.68  E(vib)   ...       0.06 
freq.     741.25  E(vib)   ...       0.06 
freq.     760.46  E(vib)   ...       0.06 
freq.     774.71  E(vib)   ...       0.05 
freq.     794.74  E(vib)   ...       0.05 
freq.     815.19  E(vib)   ...       0.05 
freq.     819.63  E(vib)   ...       0.05 
freq.     830.70  E(vib)   ...       0.04 
freq.     846.85  E(vib)   ...       0.04 
freq.     858.95  E(vib)   ...       0.04 
freq.     870.42  E(vib)   ...       0.04 
freq.     881.02  E(vib)   ...       0.04 
freq.     888.75  E(vib)   ...       0.04 
freq.     944.71  E(vib)   ...       0.03 
freq.     976.18  E(vib)   ...       0.03 
freq.     980.83  E(vib)   ...       0.02 
freq.     991.32  E(vib)   ...       0.02 
freq.     993.84  E(vib)   ...       0.02 
freq.    1000.35  E(vib)   ...       0.02 
freq.    1009.34  E(vib)   ...       0.02 
freq.    1010.12  E(vib)   ...       0.02 
freq.    1014.76  E(vib)   ...       0.02 
freq.    1017.30  E(vib)   ...       0.02 
freq.    1055.39  E(vib)   ...       0.02 
freq.    1118.53  E(vib)   ...       0.01 
freq.    1134.21  E(vib)   ...       0.01 
freq.    1181.27  E(vib)   ...       0.01 
freq.    1189.02  E(vib)   ...       0.01 
freq.    1204.01  E(vib)   ...       0.01 
freq.    1210.47  E(vib)   ...       0.01 
freq.    1233.99  E(vib)   ...       0.01 
freq.    1254.15  E(vib)   ...       0.01 
freq.    1263.21  E(vib)   ...       0.01 
freq.    1272.53  E(vib)   ...       0.01 
freq.    1279.08  E(vib)   ...       0.01 
freq.    1298.58  E(vib)   ...       0.01 
freq.    1320.26  E(vib)   ...       0.01 
freq.    1333.59  E(vib)   ...       0.01 
freq.    1335.63  E(vib)   ...       0.01 
freq.    1370.42  E(vib)   ...       0.01 
freq.    1381.43  E(vib)   ...       0.01 
freq.    1397.88  E(vib)   ...       0.00 
freq.    1405.91  E(vib)   ...       0.00 
freq.    1414.72  E(vib)   ...       0.00 
freq.    1427.11  E(vib)   ...       0.00 
freq.    1444.71  E(vib)   ...       0.00 
freq.    1469.04  E(vib)   ...       0.00 
freq.    1507.43  E(vib)   ...       0.00 
freq.    1535.11  E(vib)   ...       0.00 
freq.    1548.33  E(vib)   ...       0.00 
freq.    1571.45  E(vib)   ...       0.00 
freq.    1610.04  E(vib)   ...       0.00 
freq.    1621.19  E(vib)   ...       0.00 
freq.    1625.12  E(vib)   ...       0.00 
freq.    1644.34  E(vib)   ...       0.00 
freq.    1658.25  E(vib)   ...       0.00 
freq.    1665.34  E(vib)   ...       0.00 
freq.    1692.29  E(vib)   ...       0.00 
freq.    1710.70  E(vib)   ...       0.00 
freq.    3168.76  E(vib)   ...       0.00 
freq.    3172.57  E(vib)   ...       0.00 
freq.    3173.26  E(vib)   ...       0.00 
freq.    3175.78  E(vib)   ...       0.00 
freq.    3177.69  E(vib)   ...       0.00 
freq.    3181.85  E(vib)   ...       0.00 
freq.    3195.11  E(vib)   ...       0.00 
freq.    3198.23  E(vib)   ...       0.00 
freq.    3205.40  E(vib)   ...       0.00 
freq.    3217.97  E(vib)   ...       0.00 
freq.    3223.41  E(vib)   ...       0.00 
freq.    3254.08  E(vib)   ...       0.00 
freq.    3606.90  E(vib)   ...       0.00 
freq.    3735.86  E(vib)   ...       0.00 

------------
INNER ENERGY
------------

The inner energy is: U= E(el) + E(ZPE) + E(vib) + E(rot) + E(trans)
    E(el)   - is the total energy from the electronic structure calculation
              = E(kin-el) + E(nuc-el) + E(el-el) + E(nuc-nuc)
    E(ZPE)  - the the zero temperature vibrational energy from the frequency calculation
    E(vib)  - the the finite temperature correction to E(ZPE) due to population
              of excited vibrational states
    E(rot)  - is the rotational thermal energy
    E(trans)- is the translational thermal energy

Summary of contributions to the inner energy U:
Electronic energy                ...  -1029.08376912 Eh
Zero point energy                ...      0.29330400 Eh     184.05 kcal/mol
Thermal vibrational correction   ...      0.01496657 Eh       9.39 kcal/mol
Thermal rotational correction    ...      0.00141627 Eh       0.89 kcal/mol
Thermal translational correction ...      0.00141627 Eh       0.89 kcal/mol
-----------------------------------------------------------------------
Total thermal energy                  -1028.77266600 Eh


Summary of corrections to the electronic energy:
(perhaps to be used in another calculation)
Total thermal correction                  0.01779912 Eh      11.17 kcal/mol
Non-thermal (ZPE) correction              0.29330400 Eh     184.05 kcal/mol
-----------------------------------------------------------------------
Total correction                          0.31110311 Eh     195.22 kcal/mol


--------
ENTHALPY
--------

The enthalpy is H = U + kB*T
                kB is Boltzmann's constant
Total free energy                 ...  -1028.77266600 Eh 
Thermal Enthalpy correction       ...      0.00094421 Eh       0.59 kcal/mol
-----------------------------------------------------------------------
Total Enthalpy                    ...  -1028.77172179 Eh


Note: Only C1 symmetry has been detected, increase convergence thresholds 
      if your molecule has a higher symmetry. Symmetry factor of 1.0 is   
      used for the rotational entropy correction. 
 

Note: Rotational entropy computed according to Herzberg 
Infrared and Raman Spectra, Chapter V,1, Van Nostrand Reinhold, 1945 
Point Group:  C1, Symmetry Number:   1  
Rotational constants in cm-1:     0.024972     0.003321     0.002931 

Vibrational entropy computed according to the QRRHO of S. Grimme
Chem.Eur.J. 2012 18 9955


-------
ENTROPY
-------

The entropy contributions are T*S = T*(S(el)+S(vib)+S(rot)+S(trans))
     S(el)   - electronic entropy
     S(vib)  - vibrational entropy
     S(rot)  - rotational entropy
     S(trans)- translational entropy
The entropies will be listed as multiplied by the temperature to get
units of energy

Electronic entropy                ...      0.00000000 Eh      0.00 kcal/mol
Vibrational entropy               ...      0.02590776 Eh     16.26 kcal/mol
Rotational entropy                ...      0.01670072 Eh     10.48 kcal/mol
Translational entropy             ...      0.02049332 Eh     12.86 kcal/mol
-----------------------------------------------------------------------
Final entropy term                ...      0.06310180 Eh     39.60 kcal/mol

In case the symmetry of your molecule has not been determined correctly
or in case you have a reason to use a different symmetry number we print 
out the resulting rotational entropy values for sn=1,12 :
 --------------------------------------------------------
|  sn= 1 | S(rot)=       0.01670072 Eh     10.48 kcal/mol|
|  sn= 2 | S(rot)=       0.01604626 Eh     10.07 kcal/mol|
|  sn= 3 | S(rot)=       0.01566343 Eh      9.83 kcal/mol|
|  sn= 4 | S(rot)=       0.01539181 Eh      9.66 kcal/mol|
|  sn= 5 | S(rot)=       0.01518112 Eh      9.53 kcal/mol|
|  sn= 6 | S(rot)=       0.01500897 Eh      9.42 kcal/mol|
|  sn= 7 | S(rot)=       0.01486343 Eh      9.33 kcal/mol|
|  sn= 8 | S(rot)=       0.01473735 Eh      9.25 kcal/mol|
|  sn= 9 | S(rot)=       0.01462614 Eh      9.18 kcal/mol|
|  sn=10 | S(rot)=       0.01452666 Eh      9.12 kcal/mol|
|  sn=11 | S(rot)=       0.01443667 Eh      9.06 kcal/mol|
|  sn=12 | S(rot)=       0.01435452 Eh      9.01 kcal/mol|
 --------------------------------------------------------


-------------------
GIBBS FREE ENERGY
-------------------

The Gibbs free energy is G = H - T*S

Total enthalpy                    ...  -1028.77172179 Eh 
Total entropy correction          ...     -0.06310180 Eh    -39.60 kcal/mol
-----------------------------------------------------------------------
Final Gibbs free energy         ...  -1028.83482359 Eh

For completeness - the Gibbs free energy minus the electronic energy
G-E(el)                           ...      0.24894552 Eh    156.22 kcal/mol


Timings for individual modules:

Sum of individual times         ...     2187.891 sec (=  36.465 min)
GTO integral calculation        ...       16.758 sec (=   0.279 min)   0.8 %
SCF iterations                  ...      436.173 sec (=   7.270 min)  19.9 %
SCF Gradient evaluation         ...       37.543 sec (=   0.626 min)   1.7 %
Geometry relaxation             ...        4.662 sec (=   0.078 min)   0.2 %
Analytical frequency calculation...     1692.754 sec (=  28.213 min)  77.4 %
                             ****ORCA TERMINATED NORMALLY****
TOTAL RUN TIME: 0 days 0 hours 36 minutes 44 seconds 583 msec
