Start Job  on nano07

                                 *****************
                                 * O   R   C   A *
                                 *****************

                                            #,                                       
                                            ###                                      
                                            ####                                     
                                            #####                                    
                                            ######                                   
                                           ########,                                 
                                     ,,################,,,,,                         
                               ,,#################################,,                 
                          ,,##########################################,,             
                       ,#########################################, ''#####,          
                    ,#############################################,,   '####,        
                  ,##################################################,,,,####,       
                ,###########''''           ''''###############################       
              ,#####''   ,,,,##########,,,,          '''####'''          '####       
            ,##' ,,,,###########################,,,                        '##       
           ' ,,###''''                  '''############,,,                           
         ,,##''                                '''############,,,,        ,,,,,,###''
      ,#''                                            '''#######################'''  
     '                                                          ''''####''''         
             ,#######,   #######,   ,#######,      ##                                
            ,#'     '#,  ##    ##  ,#'     '#,    #''#        ######   ,####,        
            ##       ##  ##   ,#'  ##            #'  '#       #        #'  '#        
            ##       ##  #######   ##           ,######,      #####,   #    #        
            '#,     ,#'  ##    ##  '#,     ,#' ,#      #,         ##   #,  ,#        
             '#######'   ##     ##  '#######'  #'      '#     #####' # '####'        



                  #######################################################
                  #                        -***-                        #
                  #          Department of theory and spectroscopy      #
                  #    Directorship and core code : Frank Neese         #
                  #        Max Planck Institute fuer Kohlenforschung    #
                  #                Kaiser Wilhelm Platz 1               #
                  #                 D-45470 Muelheim/Ruhr               #
                  #                      Germany                        #
                  #                                                     #
                  #                  All rights reserved                #
                  #                        -***-                        #
                  #######################################################


                         Program Version 5.0.4 -  RELEASE  -


 With contributions from (in alphabetic order):
   Daniel Aravena         : Magnetic Suceptibility
   Michael Atanasov       : Ab Initio Ligand Field Theory (pilot matlab implementation)
   Alexander A. Auer      : GIAO ZORA, VPT2 properties, NMR spectrum
   Ute Becker             : Parallelization
   Giovanni Bistoni       : ED, misc. LED, open-shell LED, HFLD
   Martin Brehm           : Molecular dynamics
   Dmytro Bykov           : SCF Hessian
   Vijay G. Chilkuri      : MRCI spin determinant printing, contributions to CSF-ICE
   Dipayan Datta          : RHF DLPNO-CCSD density
   Achintya Kumar Dutta   : EOM-CC, STEOM-CC
   Dmitry Ganyushin       : Spin-Orbit,Spin-Spin,Magnetic field MRCI
   Miquel Garcia          : C-PCM and meta-GGA Hessian, CC/C-PCM, Gaussian charge scheme
   Yang Guo               : DLPNO-NEVPT2, F12-NEVPT2, CIM, IAO-localization
   Andreas Hansen         : Spin unrestricted coupled pair/coupled cluster methods
   Benjamin Helmich-Paris : MC-RPA, TRAH-SCF, COSX integrals
   Lee Huntington         : MR-EOM, pCC
   Robert Izsak           : Overlap fitted RIJCOSX, COSX-SCS-MP3, EOM
   Marcus Kettner         : VPT2
   Christian Kollmar      : KDIIS, OOCD, Brueckner-CCSD(T), CCSD density, CASPT2, CASPT2-K
   Simone Kossmann        : Meta GGA functionals, TD-DFT gradient, OOMP2, MP2 Hessian
   Martin Krupicka        : Initial AUTO-CI
   Lucas Lang             : DCDCAS
   Marvin Lechner         : AUTO-CI (C++ implementation), FIC-MRCC
   Dagmar Lenk            : GEPOL surface, SMD
   Dimitrios Liakos       : Extrapolation schemes; Compound Job, initial MDCI parallelization
   Dimitrios Manganas     : Further ROCIS development; embedding schemes
   Dimitrios Pantazis     : SARC Basis sets
   Anastasios Papadopoulos: AUTO-CI, single reference methods and gradients
   Taras Petrenko         : DFT Hessian,TD-DFT gradient, ASA, ECA, R-Raman, ABS, FL, XAS/XES, NRVS
   Peter Pinski           : DLPNO-MP2, DLPNO-MP2 Gradient
   Christoph Reimann      : Effective Core Potentials
   Marius Retegan         : Local ZFS, SOC
   Christoph Riplinger    : Optimizer, TS searches, QM/MM, DLPNO-CCSD(T), (RO)-DLPNO pert. Triples
   Tobias Risthaus        : Range-separated hybrids, TD-DFT gradient, RPA, STAB
   Michael Roemelt        : Original ROCIS implementation
   Masaaki Saitow         : Open-shell DLPNO-CCSD energy and density
   Barbara Sandhoefer     : DKH picture change effects
   Avijit Sen             : IP-ROCIS
   Kantharuban Sivalingam : CASSCF convergence, NEVPT2, FIC-MRCI
   Bernardo de Souza      : ESD, SOC TD-DFT
   Georgi Stoychev        : AutoAux, RI-MP2 NMR, DLPNO-MP2 response
   Willem Van den Heuvel  : Paramagnetic NMR
   Boris Wezisla          : Elementary symmetry handling
   Frank Wennmohs         : Technical directorship


 We gratefully acknowledge several colleagues who have allowed us to
 interface, adapt or use parts of their codes:
   Stefan Grimme, W. Hujo, H. Kruse, P. Pracht,  : VdW corrections, initial TS optimization,
                  C. Bannwarth, S. Ehlert          DFT functionals, gCP, sTDA/sTD-DF
   Ed Valeev, F. Pavosevic, A. Kumar             : LibInt (2-el integral package), F12 methods
   Garnet Chan, S. Sharma, J. Yang, R. Olivares  : DMRG
   Ulf Ekstrom                                   : XCFun DFT Library
   Mihaly Kallay                                 : mrcc  (arbitrary order and MRCC methods)
   Jiri Pittner, Ondrej Demel                    : Mk-CCSD
   Frank Weinhold                                : gennbo (NPA and NBO analysis)
   Christopher J. Cramer and Donald G. Truhlar   : smd solvation model
   Lars Goerigk                                  : TD-DFT with DH, B97 family of functionals
   V. Asgeirsson, H. Jonsson                     : NEB implementation
   FAccTs GmbH                                   : IRC, NEB, NEB-TS, DLPNO-Multilevel, CI-OPT
                                                   MM, QMMM, 2- and 3-layer-ONIOM, Crystal-QMMM,
                                                   LR-CPCM, SF, NACMEs, symmetry and pop. for TD-DFT,
                                                   nearIR, NL-DFT gradient (VV10), updates on ESD,
                                                   ML-optimized integration grids
   S Lehtola, MJT Oliveira, MAL Marques          : LibXC Library
   Liviu Ungur et al                             : ANISO software


 Your calculation uses the libint2 library for the computation of 2-el integrals
 For citations please refer to: http://libint.valeyev.net

 Your ORCA version has been built with support for libXC version: 5.1.0
 For citations please refer to: https://tddft.org/programs/libxc/

 This ORCA versions uses:
   CBLAS   interface :  Fast vector & matrix operations
   LAPACKE interface :  Fast linear algebra routines
   SCALAPACK package :  Parallel linear algebra routines
   Shared memory     :  Shared parallel matrices
   BLAS/LAPACK       :  OpenBLAS 0.3.15  USE64BITINT DYNAMIC_ARCH NO_AFFINITY Zen SINGLE_THREADED
        Core in use  :  Zen
   Copyright (c) 2011-2014, The OpenBLAS Project


================================================================================

----- Orbital basis set information -----
Your calculation utilizes the basis: def2-SVP
   F. Weigend and R. Ahlrichs, Phys. Chem. Chem. Phys. 7, 3297 (2005).

----- AuxJ basis set information -----
Your calculation utilizes the auxiliary basis: def2/J
   F. Weigend, Phys. Chem. Chem. Phys. 8, 1057 (2006).

================================================================================
                                        WARNINGS
                       Please study these warnings very carefully!
================================================================================


WARNING: Geometry Optimization
  ===> : Switching off AutoStart
         For restart on a previous wavefunction, please use MOREAD

INFO   : the flag for use of the SHARK integral package has been found!

================================================================================
                                       INPUT FILE
================================================================================
NAME = NO2_NH2_3.inp
|  1> ! B3LYP def2-SVP Opt PAL8 FREQ defgrid3 slowconv VeryTightSCF
|  2> *xyz 0 1
|  3>  C        -7.120690        2.887685       -0.262849
|  4>  C        -5.862910        3.532295       -0.263909
|  5>  C        -4.678855        2.826439       -0.164887
|  6>  C        -4.685036        1.418971       -0.057830
|  7>  C        -3.473357        0.666767        0.044679
|  8>  C        -3.487416       -0.696294        0.147757
|  9>  C        -4.709912       -1.448660        0.159342
| 10>  C        -4.734515       -2.880294        0.265995
| 11>  C        -6.000584       -3.513864        0.260780
| 12>  C        -7.184864       -2.805497        0.165377
| 13>  C        -7.189180       -1.400261        0.061519
| 14>  C        -8.399614       -0.648720       -0.041763
| 15>  C        -8.393013        0.714415       -0.145385
| 16>  C        -7.165216        1.458896       -0.155180
| 17>  C        -5.932926        0.721643       -0.051910
| 18>  C        -5.939948       -0.710571        0.056848
| 19>  C        -8.345164        3.664856       -0.369540
| 20>  C        -3.505546       -3.654490        0.387350
| 21>  C        -8.460021        5.003550       -0.484459
| 22>  C        -3.415268       -5.007370        0.505425
| 23>  N        -2.255037       -5.732992        0.481461
| 24>  N        -9.770155        5.621136       -0.581003
| 25>  O        -9.777568        6.843581       -0.683953
| 26>  O       -10.773860        4.918182       -0.556103
| 27>  H        -5.820513        4.620229       -0.344609
| 28>  H        -3.722432        3.355824       -0.168896
| 29>  H        -2.522628        1.206794        0.037689
| 30>  H        -2.533008       -1.217112        0.220130
| 31>  H        -6.057717       -4.601819        0.331532
| 32>  H        -8.139038       -3.340241        0.166649
| 33>  H        -9.350343       -1.189536       -0.037347
| 34>  H        -9.346213        1.236462       -0.222011
| 35>  H        -9.302540        3.141385       -0.359368
| 36>  H        -2.560012       -3.108161        0.381834
| 37>  H        -7.665372        5.745489       -0.519667
| 38>  H        -4.313575       -5.631352        0.525299
| 39>  H        -2.295874       -6.685776        1.239805
| 40>  H        -1.368079       -5.244129        0.898368
| 41> *
| 42> 
| 43>                          ****END OF INPUT****
================================================================================

                       *****************************
                       * Geometry Optimization Run *
                       *****************************

Geometry optimization settings:
Update method            Update   .... BFGS
Choice of coordinates    CoordSys .... Z-matrix Internals
Initial Hessian          InHess   .... Almoef's Model

Convergence Tolerances:
Energy Change            TolE     ....  5.0000e-06 Eh
Max. Gradient            TolMAXG  ....  3.0000e-04 Eh/bohr
RMS Gradient             TolRMSG  ....  1.0000e-04 Eh/bohr
Max. Displacement        TolMAXD  ....  4.0000e-03 bohr
RMS Displacement         TolRMSD  ....  2.0000e-03 bohr
Strict Convergence                ....  False
------------------------------------------------------------------------------
                        ORCA OPTIMIZATION COORDINATE SETUP
------------------------------------------------------------------------------

The optimization will be done in new redundant internal coordinates
Making redundant internal coordinates   ...  (new redundants) done
Evaluating the initial hessian          ...  (Almloef) done
Evaluating the coordinates              ...  done
Calculating the B-matrix                .... done
Calculating the G-matrix                .... done
Diagonalizing the G-matrix              .... done
Small eigenvalue found = 4.553e-03
Small eigenvalue found = 9.548e-03
Small eigenvalue found = 1.345e-02
The first mode is                       ....   99
The number of degrees of freedom        ....  108

    -----------------------------------------------------------------
                    Redundant Internal Coordinates


    -----------------------------------------------------------------
         Definition                    Initial Value    Approx d2E/dq
    -----------------------------------------------------------------
      1. B(C   1,C   0)                  1.4133         0.573454   
      2. B(C   2,C   1)                  1.3820         0.643345   
      3. B(C   3,C   2)                  1.4115         0.577247   
      4. B(C   4,C   3)                  1.4299         0.539700   
      5. B(C   5,C   4)                  1.3670         0.679819   
      6. B(C   6,C   5)                  1.4355         0.528606   
      7. B(C   7,C   6)                  1.4358         0.528018   
      8. B(C   8,C   7)                  1.4158         0.568387   
      9. B(C   9,C   8)                  1.3833         0.640463   
     10. B(C  10,C   9)                  1.4091         0.582512   
     11. B(C  11,C  10)                  1.4285         0.542380   
     12. B(C  12,C  11)                  1.3671         0.679673   
     13. B(C  13,C  12)                  1.4359         0.527830   
     14. B(C  13,C   0)                  1.4335         0.532459   
     15. B(C  14,C   3)                  1.4295         0.540362   
     16. B(C  14,C  13)                  1.4397         0.520523   
     17. B(C  15,C  14)                  1.4364         0.526966   
     18. B(C  15,C  10)                  1.4270         0.545428   
     19. B(C  15,C   6)                  1.4381         0.523506   
     20. B(C  16,C   0)                  1.4542         0.493517   
     21. B(C  17,C   7)                  1.4576         0.487479   
     22. B(C  18,C  16)                  1.3485         0.727647   
     23. B(C  19,C  17)                  1.3610         0.694983   
     24. B(N  20,C  19)                  1.3687         0.605226   
     25. B(N  21,C  18)                  1.4516         0.446245   
     26. B(O  22,N  21)                  1.2268         0.912843   
     27. B(O  23,N  21)                  1.2256         0.916731   
     28. B(H  24,C   1)                  1.0917         0.357797   
     29. B(H  25,C   2)                  1.0932         0.355937   
     30. B(H  26,C   4)                  1.0934         0.355606   
     31. B(H  27,C   5)                  1.0897         0.360535   
     32. B(H  28,C   8)                  1.0917         0.357794   
     33. B(H  29,C   9)                  1.0938         0.355107   
     34. B(H  30,C  11)                  1.0938         0.355115   
     35. B(H  31,C  12)                  1.0895         0.360771   
     36. B(H  32,C  16)                  1.0912         0.358530   
     37. B(H  33,C  17)                  1.0920         0.357418   
     38. B(H  34,C  18)                  1.0877         0.363101   
     39. B(H  35,C  19)                  1.0939         0.354926   
     40. B(H  36,N  20)                  1.2184         0.201220   
     41. B(H  37,N  20)                  1.0952         0.316404   
     42. A(C   1,C   0,C  16)          120.3673         0.410961   
     43. A(C   1,C   0,C  13)          118.8343         0.416543   
     44. A(C  13,C   0,C  16)          120.7984         0.405601   
     45. A(C   2,C   1,H  24)          118.7493         0.354740   
     46. A(C   0,C   1,H  24)          119.2822         0.347912   
     47. A(C   0,C   1,C   2)          121.9685         0.430873   
     48. A(C   3,C   2,H  25)          119.1421         0.347993   
     49. A(C   1,C   2,C   3)          120.7267         0.431383   
     50. A(C   1,C   2,H  25)          120.1312         0.354427   
     51. A(C   2,C   3,C  14)          119.3756         0.418128   
     52. A(C   4,C   3,C  14)          118.8702         0.413156   
     53. A(C   2,C   3,C   4)          121.7542         0.418037   
     54. A(C   3,C   4,H  26)          118.4603         0.344027   
     55. A(C   5,C   4,H  26)          120.1245         0.357704   
     56. A(C   3,C   4,C   5)          121.4151         0.430446   
     57. A(C   6,C   5,H  27)          119.6605         0.343622   
     58. A(C   4,C   5,C   6)          122.1378         0.428844   
     59. A(C   4,C   5,H  27)          118.2014         0.358542   
     60. A(C   5,C   6,C   7)          122.5325         0.409952   
     61. A(C   7,C   6,C  15)          120.1567         0.409249   
     62. A(C   5,C   6,C  15)          117.3107         0.409330   
     63. A(C   6,C   7,C   8)          117.4685         0.415267   
     64. A(C   6,C   7,C  17)          121.4229         0.404122   
     65. A(C   8,C   7,C  17)          121.1063         0.409421   
     66. A(C   9,C   8,H  28)          118.0334         0.354469   
     67. A(C   7,C   8,H  28)          119.5062         0.347392   
     68. A(C   7,C   8,C   9)          122.4602         0.429840   
     69. A(C  10,C   9,H  29)          119.0104         0.348389   
     70. A(C   8,C   9,H  29)          119.7636         0.354017   
     71. A(C   8,C   9,C  10)          121.2257         0.431739   
     72. A(C  11,C  10,C  15)          119.1621         0.414206   
     73. A(C   9,C  10,C  15)          118.6569         0.419503   
     74. A(C   9,C  10,C  11)          122.1809         0.419084   
     75. A(C  12,C  11,H  30)          119.8357         0.357606   
     76. A(C  10,C  11,C  12)          121.7337         0.430812   
     77. A(C  10,C  11,H  30)          118.4306         0.344233   
     78. A(C  11,C  12,H  31)          118.6128         0.358569   
     79. A(C  11,C  12,C  13)          121.4411         0.428715   
     80. A(C  13,C  12,H  31)          119.9461         0.343576   
     81. A(C   0,C  13,C  12)          122.9447         0.410455   
     82. A(C  12,C  13,C  14)          117.7676         0.408809   
     83. A(C   0,C  13,C  14)          119.2877         0.409442   
     84. A(C  13,C  14,C  15)          120.7876         0.408691   
     85. A(C   3,C  14,C  15)          119.4050         0.411409   
     86. A(C   3,C  14,C  13)          119.8073         0.410512   
     87. A(C  10,C  15,C  14)          119.1079         0.412090   
     88. A(C   6,C  15,C  14)          120.8610         0.409104   
     89. A(C   6,C  15,C  10)          120.0311         0.411609   
     90. A(C  18,C  16,H  32)          113.7218         0.362377   
     91. A(C   0,C  16,H  32)          118.7966         0.339378   
     92. A(C   0,C  16,C  18)          127.4816         0.428791   
     93. A(C  19,C  17,H  33)          116.1229         0.359359   
     94. A(C   7,C  17,H  33)          117.6393         0.338506   
     95. A(C   7,C  17,C  19)          126.2376         0.424341   
     96. A(N  21,C  18,H  34)          111.5307         0.332420   
     97. A(C  16,C  18,H  34)          128.1453         0.363162   
     98. A(C  16,C  18,N  21)          120.3239         0.418402   
     99. A(N  20,C  19,H  35)          113.2051         0.348461   
    100. A(C  17,C  19,H  35)          120.9370         0.358932   
    101. A(C  17,C  19,N  20)          125.5708         0.438273   
    102. A(H  36,N  20,H  37)           98.0054         0.256842   
    103. A(C  19,N  20,H  37)          116.3086         0.338855   
    104. A(C  19,N  20,H  36)          112.0412         0.314526   
    105. A(O  22,N  21,O  23)          124.6293         0.486991   
    106. A(C  18,N  21,O  23)          119.5871         0.430337   
    107. A(C  18,N  21,O  22)          115.7836         0.430009   
    108. D(H  24,C   1,C   0,C  13)   -179.9426         0.022570   
    109. D(H  24,C   1,C   0,C  16)      0.0659         0.022570   
    110. D(C   2,C   1,C   0,C  13)      0.0229         0.022570   
    111. D(C   2,C   1,C   0,C  16)   -179.9686         0.022570   
    112. D(C   3,C   2,C   1,H  24)    179.9633         0.028777   
    113. D(C   3,C   2,C   1,C   0)     -0.0024         0.028777   
    114. D(H  25,C   2,C   1,H  24)     -0.0473         0.028777   
    115. D(H  25,C   2,C   1,C   0)    179.9870         0.028777   
    116. D(C  14,C   3,C   2,H  25)    179.9915         0.022883   
    117. D(C   4,C   3,C   2,C   1)    179.9483         0.022883   
    118. D(C   4,C   3,C   2,H  25)     -0.0412         0.022883   
    119. D(C  14,C   3,C   2,C   1)     -0.0189         0.022883   
    120. D(H  26,C   4,C   3,C   2)     -0.0753         0.019902   
    121. D(C   5,C   4,C   3,C   2)   -179.9853         0.019902   
    122. D(C   5,C   4,C   3,C  14)     -0.0179         0.019902   
    123. D(H  26,C   4,C   3,C  14)    179.8921         0.019902   
    124. D(H  27,C   5,C   4,H  26)     -0.0823         0.032394   
    125. D(C   6,C   5,C   4,C   3)     -0.0065         0.032394   
    126. D(C   6,C   5,C   4,H  26)   -179.9151         0.032394   
    127. D(H  27,C   5,C   4,C   3)    179.8262         0.032394   
    128. D(C  15,C   6,C   5,H  27)   -179.8075         0.019070   
    129. D(C  15,C   6,C   5,C   4)      0.0229         0.019070   
    130. D(C   7,C   6,C   5,H  27)      0.1110         0.019070   
    131. D(C   7,C   6,C   5,C   4)    179.9413         0.019070   
    132. D(C  17,C   7,C   6,C  15)   -179.2569         0.019027   
    133. D(C  17,C   7,C   6,C   5)      0.8269         0.019027   
    134. D(C   8,C   7,C   6,C  15)      0.2013         0.019027   
    135. D(C   8,C   7,C   6,C   5)   -179.7149         0.019027   
    136. D(H  28,C   8,C   7,C   6)    179.4777         0.022156   
    137. D(C   9,C   8,C   7,C  17)    179.1015         0.022156   
    138. D(C   9,C   8,C   7,C   6)     -0.3585         0.022156   
    139. D(H  28,C   8,C   7,C  17)     -1.0622         0.022156   
    140. D(H  29,C   9,C   8,H  28)      0.2347         0.028502   
    141. D(H  29,C   9,C   8,C   7)   -179.9267         0.028502   
    142. D(C  10,C   9,C   8,H  28)   -179.5583         0.028502   
    143. D(C  10,C   9,C   8,C   7)      0.2803         0.028502   
    144. D(C  15,C  10,C   9,H  29)   -179.8279         0.023322   
    145. D(C  15,C  10,C   9,C   8)     -0.0334         0.023322   
    146. D(C  11,C  10,C   9,H  29)      0.0288         0.023322   
    147. D(C  11,C  10,C   9,C   8)    179.8233         0.023322   
    148. D(H  30,C  11,C  10,C  15)    179.9793         0.020106   
    149. D(H  30,C  11,C  10,C   9)      0.1233         0.020106   
    150. D(C  12,C  11,C  10,C  15)      0.0181         0.020106   
    151. D(C  12,C  11,C  10,C   9)   -179.8379         0.020106   
    152. D(H  31,C  12,C  11,H  30)      0.0029         0.032379   
    153. D(H  31,C  12,C  11,C  10)    179.9636         0.032379   
    154. D(C  13,C  12,C  11,H  30)   -179.9729         0.032379   
    155. D(C  13,C  12,C  11,C  10)     -0.0122         0.032379   
    156. D(C  14,C  13,C  12,H  31)   -179.9746         0.019013   
    157. D(C   0,C  13,C  12,H  31)      0.0011         0.019013   
    158. D(C   0,C  13,C  12,C  11)    179.9766         0.019013   
    159. D(C  14,C  13,C   0,C  16)    179.9697         0.019357   
    160. D(C  14,C  13,C   0,C   1)     -0.0217         0.019357   
    161. D(C  14,C  13,C  12,C  11)      0.0008         0.019013   
    162. D(C  12,C  13,C   0,C  16)     -0.0057         0.019357   
    163. D(C  12,C  13,C   0,C   1)   -179.9971         0.019357   
    164. D(C   3,C  14,C  13,C  12)    179.9777         0.018479   
    165. D(C   3,C  14,C  13,C   0)      0.0010         0.018479   
    166. D(C  15,C  14,C   3,C   4)      0.0248         0.019952   
    167. D(C  15,C  14,C   3,C   2)    179.9930         0.019952   
    168. D(C  13,C  14,C   3,C   4)   -179.9489         0.019952   
    169. D(C  15,C  14,C  13,C   0)   -179.9723         0.018479   
    170. D(C  13,C  14,C   3,C   2)      0.0193         0.019952   
    171. D(C  15,C  14,C  13,C  12)      0.0043         0.018479   
    172. D(C  10,C  15,C  14,C  13)      0.0017         0.018949   
    173. D(C   6,C  15,C  14,C  13)    179.9652         0.018949   
    174. D(C   6,C  15,C  14,C   3)     -0.0083         0.018949   
    175. D(C  14,C  15,C  10,C  11)     -0.0126         0.020340   
    176. D(C  14,C  15,C  10,C   9)    179.8485         0.020340   
    177. D(C   6,C  15,C  10,C  11)   -179.9764         0.020340   
    178. D(C   6,C  15,C  10,C   9)     -0.1153         0.020340   
    179. D(C  14,C  15,C   6,C   7)   -179.9357         0.018696   
    180. D(C  14,C  15,C   6,C   5)     -0.0152         0.018696   
    181. D(C  10,C  15,C  14,C   3)   -179.9718         0.018949   
    182. D(C  10,C  15,C   6,C   7)      0.0275         0.018696   
    183. D(C  10,C  15,C   6,C   5)    179.9480         0.018696   
    184. D(H  32,C  16,C   0,C  13)      0.4176         0.016586   
    185. D(H  32,C  16,C   0,C   1)   -179.5912         0.016586   
    186. D(C  18,C  16,C   0,C  13)   -179.5730         0.016586   
    187. D(C  18,C  16,C   0,C   1)      0.4183         0.016586   
    188. D(H  33,C  17,C   7,C   8)    179.8063         0.016180   
    189. D(H  33,C  17,C   7,C   6)     -0.7552         0.016180   
    190. D(C  19,C  17,C   7,C   8)     -0.0348         0.016180   
    191. D(C  19,C  17,C   7,C   6)    179.4038         0.016180   
    192. D(H  34,C  18,C  16,H  32)   -179.9141         0.037545   
    193. D(H  34,C  18,C  16,C   0)      0.0768         0.037545   
    194. D(N  21,C  18,C  16,H  32)      0.0035         0.037545   
    195. D(N  21,C  18,C  16,C   0)    179.9944         0.037545   
    196. D(H  35,C  19,C  17,H  33)    179.6489         0.033977   
    197. D(H  35,C  19,C  17,C   7)     -0.5080         0.033977   
    198. D(N  20,C  19,C  17,H  33)     -6.9357         0.033977   
    199. D(N  20,C  19,C  17,C   7)    172.9074         0.033977   
    200. D(H  37,N  20,C  19,H  35)   -153.6157         0.029553   
    201. D(H  37,N  20,C  19,C  17)     32.5275         0.029553   
    202. D(H  36,N  20,C  19,H  35)    -42.0370         0.029553   
    203. D(H  36,N  20,C  19,C  17)    144.1062         0.029553   
    204. D(O  23,N  21,C  18,H  34)   -179.9949         0.015682   
    205. D(O  23,N  21,C  18,C  16)      0.0748         0.015682   
    206. D(O  22,N  21,C  18,H  34)      0.0019         0.015682   
    207. D(O  22,N  21,C  18,C  16)   -179.9284         0.015682   
    -----------------------------------------------------------------

Number of atoms                         .... 38
Number of degrees of freedom            .... 207

         *************************************************************
         *                GEOMETRY OPTIMIZATION CYCLE   1            *
         *************************************************************
---------------------------------
CARTESIAN COORDINATES (ANGSTROEM)
---------------------------------
  C     -7.120690    2.887685   -0.262849
  C     -5.862910    3.532295   -0.263909
  C     -4.678855    2.826439   -0.164887
  C     -4.685036    1.418971   -0.057830
  C     -3.473357    0.666767    0.044679
  C     -3.487416   -0.696294    0.147757
  C     -4.709912   -1.448660    0.159342
  C     -4.734515   -2.880294    0.265995
  C     -6.000584   -3.513864    0.260780
  C     -7.184864   -2.805497    0.165377
  C     -7.189180   -1.400261    0.061519
  C     -8.399614   -0.648720   -0.041763
  C     -8.393013    0.714415   -0.145385
  C     -7.165216    1.458896   -0.155180
  C     -5.932926    0.721643   -0.051910
  C     -5.939948   -0.710571    0.056848
  C     -8.345164    3.664856   -0.369540
  C     -3.505546   -3.654490    0.387350
  C     -8.460021    5.003550   -0.484459
  C     -3.415268   -5.007370    0.505425
  N     -2.255037   -5.732992    0.481461
  N     -9.770155    5.621136   -0.581003
  O     -9.777568    6.843581   -0.683953
  O    -10.773860    4.918182   -0.556103
  H     -5.820513    4.620229   -0.344609
  H     -3.722432    3.355824   -0.168896
  H     -2.522628    1.206794    0.037689
  H     -2.533008   -1.217112    0.220130
  H     -6.057717   -4.601819    0.331532
  H     -8.139038   -3.340241    0.166649
  H     -9.350343   -1.189536   -0.037347
  H     -9.346213    1.236462   -0.222011
  H     -9.302540    3.141385   -0.359368
  H     -2.560012   -3.108161    0.381834
  H     -7.665372    5.745489   -0.519667
  H     -4.313575   -5.631352    0.525299
  H     -2.295874   -6.685776    1.239805
  H     -1.368079   -5.244129    0.898368

----------------------------
CARTESIAN COORDINATES (A.U.)
----------------------------
  NO LB      ZA    FRAG     MASS         X           Y           Z
   0 C     6.0000    0    12.011  -13.456154    5.456934   -0.496713
   1 C     6.0000    0    12.011  -11.079294    6.675070   -0.498716
   2 C     6.0000    0    12.011   -8.841755    5.341196   -0.311591
   3 C     6.0000    0    12.011   -8.853435    2.681467   -0.109283
   4 C     6.0000    0    12.011   -6.563693    1.260007    0.084431
   5 C     6.0000    0    12.011   -6.590261   -1.315805    0.279220
   6 C     6.0000    0    12.011   -8.900444   -2.737571    0.301113
   7 C     6.0000    0    12.011   -8.946937   -5.442967    0.502658
   8 C     6.0000    0    12.011  -11.339460   -6.640241    0.492803
   9 C     6.0000    0    12.011  -13.577425   -5.301621    0.312517
  10 C     6.0000    0    12.011  -13.585581   -2.646110    0.116254
  11 C     6.0000    0    12.011  -15.872970   -1.225903   -0.078921
  12 C     6.0000    0    12.011  -15.860496    1.350049   -0.274738
  13 C     6.0000    0    12.011  -13.540296    2.756914   -0.293248
  14 C     6.0000    0    12.011  -11.211605    1.363708   -0.098096
  15 C     6.0000    0    12.011  -11.224875   -1.342785    0.107427
  16 C     6.0000    0    12.011  -15.770075    6.925574   -0.698329
  17 C     6.0000    0    12.011   -6.624522   -6.905985    0.731985
  18 C     6.0000    0    12.011  -15.987123    9.455339   -0.915495
  19 C     6.0000    0    12.011   -6.453921   -9.462558    0.955115
  20 N     7.0000    0    14.007   -4.261402  -10.833785    0.909829
  21 N     7.0000    0    14.007  -18.462917   10.622408   -1.097937
  22 O     8.0000    0    15.999  -18.476926   12.932494   -1.292484
  23 O     8.0000    0    15.999  -20.359645    9.294017   -1.050882
  24 H     1.0000    0     1.008  -10.999176    8.730967   -0.651217
  25 H     1.0000    0     1.008   -7.034377    6.341588   -0.319167
  26 H     1.0000    0     1.008   -4.767076    2.280510    0.071222
  27 H     1.0000    0     1.008   -4.786691   -2.300008    0.415985
  28 H     1.0000    0     1.008  -11.447426   -8.696178    0.626505
  29 H     1.0000    0     1.008  -15.380553   -6.312141    0.314921
  30 H     1.0000    0     1.008  -17.669588   -2.247897   -0.070576
  31 H     1.0000    0     1.008  -17.661783    2.336575   -0.419540
  32 H     1.0000    0     1.008  -17.579253    5.936357   -0.679107
  33 H     1.0000    0     1.008   -4.837722   -5.873573    0.721562
  34 H     1.0000    0     1.008  -14.485454   10.857401   -0.982028
  35 H     1.0000    0     1.008   -8.151475  -10.641713    0.992671
  36 H     1.0000    0     1.008   -4.338573  -12.634286    2.342892
  37 H     1.0000    0     1.008   -2.585295   -9.909968    1.697669

--------------------------------
INTERNAL COORDINATES (ANGSTROEM)
--------------------------------
 C      0   0   0     0.000000000000     0.00000000     0.00000000
 C      1   0   0     1.413341326113     0.00000000     0.00000000
 C      2   1   0     1.382036284706   121.96847533     0.00000000
 C      3   2   1     1.411547228057   120.72665047     0.00000000
 C      4   3   2     1.429854870866   121.75421896   179.94830283
 C      5   4   3     1.367025244568   121.41514887   180.01469500
 C      6   5   4     1.435508718259   122.13784542     0.00000000
 C      7   6   5     1.435811993255   122.53250731   179.94134146
 C      8   7   6     1.415757342868   117.46849830   180.28513944
 C      9   8   7     1.383258709533   122.46019512   359.64146639
 C     10   9   8     1.409075344939   121.22570706     0.28026818
 C     11  10   9     1.428506742918   122.18085359   179.82333891
 C     12  11  10     1.367083801495   121.73368092   180.16214165
 C      1   2   3     1.433531717388   118.83431732     0.00000000
 C      4   3   2     1.429521191897   119.37556647     0.00000000
 C     11  10   9     1.426980975404   118.65692832   359.96663443
 C      1   2   3     1.454205731455   120.36729538   180.03143423
 C      8   7   6     1.457556614819   121.42292868     0.82690528
 C     17   1   2     1.348517753923   127.48157678     0.41831240
 C     18   8   7     1.361020248677   126.23758437   179.40383024
 N     20  18   8     1.368662680700   125.57078802   172.90744898
 N     19  17   1     1.451614380367   120.32389057   179.99444002
 O     22  19  17     1.226794780350   115.78364363   180.07155512
 O     22  19  17     1.225637818909   119.58708063     0.07476735
 H      2   1   3     1.091746483377   119.28222676   180.03449111
 H      3   2   1     1.093164903038   120.13120195   179.98704157
 H      5   4   3     1.093418333608   118.46027733   359.92470824
 H      6   5   4     1.089671450813   118.20144750   179.82623314
 H      9   8   7     1.091749104519   119.50620268   179.47773254
 H     10   9   8     1.093801072314   119.76362560   180.07329865
 H     12  11  10     1.093794806329   118.43058547     0.12332740
 H     13  12  11     1.089492934390   118.61277175   179.96357271
 H     17   1   2     1.091189334076   118.79657634   180.40884492
 H     18   8   7     1.092034957157   117.63929635   359.24484157
 H     19  17   1     1.087740831350   128.14532211     0.07683748
 H     20  18   8     1.093939659419   120.93695301   359.49204205
 H     21  20  18     1.218421369462   112.04116908   144.10624352
 H     21  20  18     1.095213665538   116.30859848    32.52746194

---------------------------
INTERNAL COORDINATES (A.U.)
---------------------------
 C      0   0   0     0.000000000000     0.00000000     0.00000000
 C      1   0   0     2.670828040107     0.00000000     0.00000000
 C      2   1   0     2.611670085237   121.96847533     0.00000000
 C      3   2   1     2.667437686122   120.72665047     0.00000000
 C      4   3   2     2.702034117189   121.75421896   179.94830283
 C      5   4   3     2.583303330390   121.41514887   180.01469500
 C      6   5   4     2.712718340365   122.13784542     0.00000000
 C      7   6   5     2.713291447051   122.53250731   179.94134146
 C      8   7   6     2.675393650109   117.46849830   180.28513944
 C      9   8   7     2.613980133378   122.46019512   359.64146639
 C     10   9   8     2.662766503996   121.22570706     0.28026818
 C     11  10   9     2.699486524574   122.18085359   179.82333891
 C     12  11  10     2.583413986945   121.73368092   180.16214165
 C      1   2   3     2.708982350154   118.83431732     0.00000000
 C      4   3   2     2.701403555323   119.37556647     0.00000000
 C     11  10   9     2.696603241829   118.65692832   359.96663443
 C      1   2   3     2.748050574830   120.36729538   180.03143423
 C      8   7   6     2.754382826693   121.42292868     0.82690528
 C     17   1   2     2.548329241645   127.48157678     0.41831240
 C     18   8   7     2.571955532721   126.23758437   179.40383024
 N     20  18   8     2.586397636242   125.57078802   172.90744898
 N     19  17   1     2.743153630955   120.32389057   179.99444002
 O     22  19  17     2.318306157386   115.78364363   180.07155512
 O     22  19  17     2.316119817115   119.58708063     0.07476735
 H      2   1   3     2.063101861253   119.28222676   180.03449111
 H      3   2   1     2.065782285957   120.13120195   179.98704157
 H      5   4   3     2.066261200328   118.46027733   359.92470824
 H      6   5   4     2.059180617989   118.20144750   179.82623314
 H      9   8   7     2.063106814495   119.50620268   179.47773254
 H     10   9   8     2.066984471663   119.76362560   180.07329865
 H     12  11  10     2.066972630668   118.43058547     0.12332740
 H     13  12  11     2.058843270839   118.61277175   179.96357271
 H     17   1   2     2.062049001659   118.79657634   180.40884492
 H     18   8   7     2.063646997695   117.63929635   359.24484157
 H     19  17   1     2.055532275935   128.14532211     0.07683748
 H     20  18   8     2.067246363336   120.93695301   359.49204205
 H     21  20  18     2.302482704000   112.04116908   144.10624352
 H     21  20  18     2.069653885996   116.30859848    32.52746194

---------------------
BASIS SET INFORMATION
---------------------
There are 4 groups of distinct atoms

 Group   1 Type C   : 7s4p1d contracted to 3s2p1d pattern {511/31/1}
 Group   2 Type N   : 7s4p1d contracted to 3s2p1d pattern {511/31/1}
 Group   3 Type O   : 7s4p1d contracted to 3s2p1d pattern {511/31/1}
 Group   4 Type H   : 4s1p contracted to 2s1p pattern {31/1}

Atom   0C    basis set group =>   1
Atom   1C    basis set group =>   1
Atom   2C    basis set group =>   1
Atom   3C    basis set group =>   1
Atom   4C    basis set group =>   1
Atom   5C    basis set group =>   1
Atom   6C    basis set group =>   1
Atom   7C    basis set group =>   1
Atom   8C    basis set group =>   1
Atom   9C    basis set group =>   1
Atom  10C    basis set group =>   1
Atom  11C    basis set group =>   1
Atom  12C    basis set group =>   1
Atom  13C    basis set group =>   1
Atom  14C    basis set group =>   1
Atom  15C    basis set group =>   1
Atom  16C    basis set group =>   1
Atom  17C    basis set group =>   1
Atom  18C    basis set group =>   1
Atom  19C    basis set group =>   1
Atom  20N    basis set group =>   2
Atom  21N    basis set group =>   2
Atom  22O    basis set group =>   3
Atom  23O    basis set group =>   3
Atom  24H    basis set group =>   4
Atom  25H    basis set group =>   4
Atom  26H    basis set group =>   4
Atom  27H    basis set group =>   4
Atom  28H    basis set group =>   4
Atom  29H    basis set group =>   4
Atom  30H    basis set group =>   4
Atom  31H    basis set group =>   4
Atom  32H    basis set group =>   4
Atom  33H    basis set group =>   4
Atom  34H    basis set group =>   4
Atom  35H    basis set group =>   4
Atom  36H    basis set group =>   4
Atom  37H    basis set group =>   4
---------------------------------
AUXILIARY/J BASIS SET INFORMATION
---------------------------------
There are 4 groups of distinct atoms

 Group   1 Type C   : 12s5p4d2f1g contracted to 6s4p3d1f1g pattern {711111/2111/211/2/1}
 Group   2 Type N   : 12s5p4d2f1g contracted to 6s4p3d1f1g pattern {711111/2111/211/2/1}
 Group   3 Type O   : 12s5p4d2f1g contracted to 6s4p3d1f1g pattern {711111/2111/211/2/1}
 Group   4 Type H   : 5s2p1d contracted to 3s1p1d pattern {311/2/1}

Atom   0C    basis set group =>   1
Atom   1C    basis set group =>   1
Atom   2C    basis set group =>   1
Atom   3C    basis set group =>   1
Atom   4C    basis set group =>   1
Atom   5C    basis set group =>   1
Atom   6C    basis set group =>   1
Atom   7C    basis set group =>   1
Atom   8C    basis set group =>   1
Atom   9C    basis set group =>   1
Atom  10C    basis set group =>   1
Atom  11C    basis set group =>   1
Atom  12C    basis set group =>   1
Atom  13C    basis set group =>   1
Atom  14C    basis set group =>   1
Atom  15C    basis set group =>   1
Atom  16C    basis set group =>   1
Atom  17C    basis set group =>   1
Atom  18C    basis set group =>   1
Atom  19C    basis set group =>   1
Atom  20N    basis set group =>   2
Atom  21N    basis set group =>   2
Atom  22O    basis set group =>   3
Atom  23O    basis set group =>   3
Atom  24H    basis set group =>   4
Atom  25H    basis set group =>   4
Atom  26H    basis set group =>   4
Atom  27H    basis set group =>   4
Atom  28H    basis set group =>   4
Atom  29H    basis set group =>   4
Atom  30H    basis set group =>   4
Atom  31H    basis set group =>   4
Atom  32H    basis set group =>   4
Atom  33H    basis set group =>   4
Atom  34H    basis set group =>   4
Atom  35H    basis set group =>   4
Atom  36H    basis set group =>   4
Atom  37H    basis set group =>   4


           ************************************************************
           *        Program running with 8 parallel MPI-processes     *
           *              working on a common directory               *
           ************************************************************
------------------------------------------------------------------------------
                           ORCA GTO INTEGRAL CALCULATION
                           -- RI-GTO INTEGRALS CHOSEN --
------------------------------------------------------------------------------
------------------------------------------------------------------------------
                   ___                                                        
                  /   \      - P O W E R E D   B Y -                         
                 /     \                                                     
                 |  |  |   _    _      __       _____    __    __             
                 |  |  |  | |  | |    /  \     |  _  \  |  |  /  |          
                  \  \/   | |  | |   /    \    | | | |  |  | /  /          
                 / \  \   | |__| |  /  /\  \   | |_| |  |  |/  /          
                |  |  |   |  __  | /  /__\  \  |    /   |      \           
                |  |  |   | |  | | |   __   |  |    \   |  |\   \          
                \     /   | |  | | |  |  |  |  | |\  \  |  | \   \       
                 \___/    |_|  |_| |__|  |__|  |_| \__\ |__|  \__/        
                                                                              
                      - O R C A' S   B I G   F R I E N D -                    
                                      &                                       
                       - I N T E G R A L  F E E D E R -                       
                                                                              
 v1 FN, 2020, v2 2021                                                         
------------------------------------------------------------------------------


Reading SHARK input file NO2_NH2_3.SHARKINP.tmp ... ok
----------------------
SHARK INTEGRAL PACKAGE
----------------------

Number of atoms                             ...     38
Number of basis functions                   ...    406
Number of shells                            ...    186
Maximum angular momentum                    ...      2
Integral batch strategy                     ... SHARK/LIBINT Hybrid
RI-J (if used) integral strategy            ... SPLIT-RIJ (Revised 2003 algorithm where possible)
Printlevel                                  ...      1
Contraction scheme used                     ... SEGMENTED contraction
Coulomb Range Separation                    ... NOT USED
Exchange Range Separation                   ... NOT USED
Finite Nucleus Model                        ... NOT USED
Auxiliary Coulomb fitting basis             ... AVAILABLE
   # of basis functions in Aux-J            ...   1330
   # of shells in Aux-J                     ...    430
   Maximum angular momentum in Aux-J        ...      4
Auxiliary J/K fitting basis                 ... NOT available
Auxiliary Correlation fitting basis         ... NOT available
Auxiliary 'external' fitting basis          ... NOT available
Integral threshold                          ...     1.000000e-12
Primitive cut-off                           ...     1.000000e-14
Primitive pair pre-selection threshold      ...     1.000000e-14

Calculating pre-screening integrals         ... done (  0.0 sec) Dimension = 186
Organizing shell pair data                  ... done (  1.3 sec)
Shell pair information
Total number of shell pairs                 ...     17391
Shell pairs after pre-screening             ...     12562
Total number of primitive shell pairs       ...     64615
Primitive shell pairs kept                  ...     30156
          la=0 lb=0:   3678 shell pairs
          la=1 lb=0:   4603 shell pairs
          la=1 lb=1:   1482 shell pairs
          la=2 lb=0:   1591 shell pairs
          la=2 lb=1:   1018 shell pairs
          la=2 lb=2:    190 shell pairs

Calculating one electron integrals          ... done (  0.0 sec)
Calculating RI/J V-Matrix + Cholesky decomp.... done ( 10.0 sec)
Calculating Nuclear repulsion               ... done (  0.0 sec) ENN=   1789.060929524759 Eh

SHARK setup successfully completed in  12.4 seconds

Maximum memory used throughout the entire GTOINT-calculation: 22.9 MB


           ************************************************************
           *        Program running with 8 parallel MPI-processes     *
           *              working on a common directory               *
           ************************************************************
-------------------------------------------------------------------------------
                                 ORCA SCF
-------------------------------------------------------------------------------

------------
SCF SETTINGS
------------
Hamiltonian:
 Density Functional     Method          .... DFT(GTOs)
 Exchange Functional    Exchange        .... B88
   X-Alpha parameter    XAlpha          ....  0.666667
   Becke's b parameter  XBeta           ....  0.004200
 Correlation Functional Correlation     .... LYP
 LDA part of GGA corr.  LDAOpt          .... VWN-5
 Gradients option       PostSCFGGA      .... off
 Hybrid DFT is turned on
   Fraction HF Exchange ScalHFX         ....  0.200000
   Scaling of DF-GGA-X  ScalDFX         ....  0.720000
   Scaling of DF-GGA-C  ScalDFC         ....  0.810000
   Scaling of DF-LDA-C  ScalLDAC        ....  1.000000
   Perturbative correction              ....  0.000000
   Density functional embedding theory  .... OFF
   NL short-range parameter             ....  4.800000
 RI-approximation to the Coulomb term is turned on
   Number of AuxJ basis functions       .... 1330
   RIJ-COSX (HFX calculated with COS-X)).... on


General Settings:
 Integral files         IntName         .... NO2_NH2_3
 Hartree-Fock type      HFTyp           .... RHF
 Total Charge           Charge          ....    0
 Multiplicity           Mult            ....    1
 Number of Electrons    NEL             ....  164
 Basis Dimension        Dim             ....  406
 Nuclear Repulsion      ENuc            ....   1789.0609295248 Eh

Convergence Acceleration:
 DIIS                   CNVDIIS         .... on
   Start iteration      DIISMaxIt       ....     0
   Startup error        DIISStart       ....  0.200000
   # of expansion vecs  DIISMaxEq       ....     5
   Bias factor          DIISBfac        ....   1.050
   Max. coefficient     DIISMaxC        ....  10.000
 Trust-Rad. Augm. Hess. CNVTRAH         .... auto
   Auto Start mean grad. ratio tolernc. ....  1.125000
   Auto Start start iteration           ....    20
   Auto Start num. interpolation iter.  ....    10
   Max. Number of Micro iterations      ....    16
   Max. Number of Macro iterations      .... Maxiter - #DIIS iter
   Number of Davidson start vectors     ....     2
   Converg. threshold I  (grad. norm)   ....   2.000e-06
   Converg. threshold II (energy diff.) ....   1.000e-09
   Grad. Scal. Fac. for Micro threshold ....   0.100
   Minimum threshold for Micro iter.    ....   0.010
   NR start threshold (gradient norm)   ....   0.001
   Initial trust radius                 ....   0.400
   Minimum AH scaling param. (alpha)    ....   1.000
   Maximum AH scaling param. (alpha)    .... 1000.000
   Orbital update algorithm             .... Taylor
   White noise on init. David. guess    .... on
   Maximum white noise                  ....   0.010
   Quad. conv. algorithm                .... NR
 SOSCF                  CNVSOSCF        .... on
   Start iteration      SOSCFMaxIt      ....   150
   Startup grad/error   SOSCFStart      ....  0.001000
 Level Shifting         CNVShift        .... on
   Level shift para.    LevelShift      ....    0.2500
   Turn off err/grad.   ShiftErr        ....    0.0000
 Zerner damping         CNVZerner       .... off
 Static damping         CNVDamp         .... on
   Fraction old density DampFac         ....    0.8500
   Max. Damping (<1)    DampMax         ....    0.9800
   Min. Damping (>=0)   DampMin         ....    0.0000
   Turn off err/grad.   DampErr         ....    0.0300
 Fernandez-Rico         CNVRico         .... off

SCF Procedure:
 Maximum # iterations   MaxIter         ....   125
 SCF integral mode      SCFMode         .... Direct
   Integral package                     .... SHARK and LIBINT hybrid scheme
 Reset frequency        DirectResetFreq ....    20
 Integral Threshold     Thresh          ....  1.000e-12 Eh
 Primitive CutOff       TCut            ....  1.000e-14 Eh

Convergence Tolerance:
 Convergence Check Mode ConvCheckMode   .... Total+1el-Energy
 Convergence forced     ConvForced      .... 0
 Energy Change          TolE            ....  1.000e-09 Eh
 1-El. energy change                    ....  1.000e-06 Eh
 Orbital Gradient       TolG            ....  2.000e-06
 Orbital Rotation angle TolX            ....  2.000e-06
 DIIS Error             TolErr          ....  1.000e-08


Diagonalization of the overlap matrix:
Smallest eigenvalue                        ... 1.995e-04
Time for diagonalization                   ...    0.032 sec
Threshold for overlap eigenvalues          ... 1.000e-08
Number of eigenvalues below threshold      ... 0
Time for construction of square roots      ...    0.034 sec
Total time needed                          ...    0.067 sec

Time for model grid setup =    1.198 sec

------------------------------
INITIAL GUESS: MODEL POTENTIAL
------------------------------
Loading Hartree-Fock densities                     ... done
Calculating cut-offs                               ... done
Initializing the effective Hamiltonian             ... done
Setting up the integral package (SHARK)            ... done
Starting the Coulomb interaction                   ... done (   0.2 sec)
Reading the grid                                   ... done
Mapping shells                                     ... done
Starting the XC term evaluation                    ... done (   0.1 sec)
  promolecular density results
     # of electrons  =    163.990858625
     EX              =   -136.503459186
     EC              =     -5.611001564
     EX+EC           =   -142.114460750
Transforming the Hamiltonian                       ... done (   0.0 sec)
Diagonalizing the Hamiltonian                      ... done (   0.0 sec)
Back transforming the eigenvectors                 ... done (   0.0 sec)
Now organizing SCF variables                       ... done
                      ------------------
                      INITIAL GUESS DONE (   1.6 sec)
                      ------------------
-------------------
DFT GRID GENERATION
-------------------

General Integration Accuracy     IntAcc      ... 4.959
Radial Grid Type                 RadialGrid  ... OptM3 with GC (2021)
Angular Grid (max. ang.)         AngularGrid ... 6 (Lebedev-590)
Angular grid pruning method      GridPruning ... 4 (adaptive)
Weight generation scheme         WeightScheme... Becke
Basis function cutoff            BFCut       ... 1.0000e-12
Integration weight cutoff        WCut        ... 1.0000e-14
Angular grids for H and He will be reduced by one unit
Partially contracted basis set               ... off
Rotationally invariant grid construction     ... off

Total number of grid points                  ...   459520
Total number of batches                      ...     7201
Average number of points per batch           ...       63
Average number of grid points per atom       ...    12093
Time for grid setup =    9.475 sec

--------------------
COSX GRID GENERATION
--------------------

GRIDX 1
-------
General Integration Accuracy     IntAcc      ... 4.020
Radial Grid Type                 RadialGrid  ... OptM3 with GC (2021)
Angular Grid (max. ang.)         AngularGrid ... 2 (Lebedev-110)
Angular grid pruning method      GridPruning ... 4 (adaptive)
Weight generation scheme         WeightScheme... Becke
Basis function cutoff            BFCut       ... 1.0000e-12
Integration weight cutoff        WCut        ... 1.0000e-14
Angular grids for H and He will be reduced by one unit
Partially contracted basis set               ... on
Rotationally invariant grid construction     ... off

Total number of grid points                  ...    52518
Total number of batches                      ...      841
Average number of points per batch           ...       62
Average number of grid points per atom       ...     1382
UseSFitting                                  ... on

GRIDX 2
-------
General Integration Accuracy     IntAcc      ... 4.338
Radial Grid Type                 RadialGrid  ... OptM3 with GC (2021)
Angular Grid (max. ang.)         AngularGrid ... 3 (Lebedev-194)
Angular grid pruning method      GridPruning ... 4 (adaptive)
Weight generation scheme         WeightScheme... Becke
Basis function cutoff            BFCut       ... 1.0000e-12
Integration weight cutoff        WCut        ... 1.0000e-14
Angular grids for H and He will be reduced by one unit
Partially contracted basis set               ... on
Rotationally invariant grid construction     ... off

Total number of grid points                  ...   115349
Total number of batches                      ...     1823
Average number of points per batch           ...       63
Average number of grid points per atom       ...     3036
UseSFitting                                  ... on

GRIDX 3
-------
General Integration Accuracy     IntAcc      ... 4.871
Radial Grid Type                 RadialGrid  ... OptM3 with GC (2021)
Angular Grid (max. ang.)         AngularGrid ... 4 (Lebedev-302)
Angular grid pruning method      GridPruning ... 4 (adaptive)
Weight generation scheme         WeightScheme... Becke
Basis function cutoff            BFCut       ... 1.0000e-12
Integration weight cutoff        WCut        ... 1.0000e-14
Angular grids for H and He will be reduced by one unit
Partially contracted basis set               ... on
Rotationally invariant grid construction     ... off

Total number of grid points                  ...   213139
Total number of batches                      ...     3349
Average number of points per batch           ...       63
Average number of grid points per atom       ...     5609
UseSFitting                                  ... on

Time for X-Grid setup             =    6.465 sec

--------------
SCF ITERATIONS
--------------
ITER       Energy         Delta-E        Max-DP      RMS-DP      [F,P]     Damp
               ***  Starting incremental Fock matrix formation  ***
  0  -1028.5673097508   0.000000000000 0.04594825  0.00103014  0.2504059 0.8500
  1  -1028.6959216312  -0.128611880414 0.03865206  0.00092675  0.1629763 0.8500
                               ***Turning on DIIS***
  2  -1028.7791009721  -0.083179340903 0.02451912  0.00072094  0.0917368 0.8500
  3  -1028.8324611371  -0.053360165043 0.01385746  0.00048578  0.0588801 0.8500
  4  -1028.8716395310  -0.039178393881 0.01206304  0.00036977  0.0434147 0.8500
  5  -1028.9018310084  -0.030191477423 0.01061547  0.00030001  0.0353663 0.8500
  6  -1028.9262701356  -0.024439127144 0.06208526  0.00166984  0.0297304 0.0000
  7  -1029.0546199916  -0.128349856073 0.00498319  0.00010068  0.0033405 0.0000
  8  -1029.0547211342  -0.000101142613 0.00205625  0.00003159  0.0020927 0.0000
                      *** Initiating the SOSCF procedure ***
                           *** Shutting down DIIS ***
                      *** Re-Reading the Fockian *** 
                      *** Removing any level shift *** 
ITER      Energy       Delta-E        Grad      Rot      Max-DP    RMS-DP
  9  -1029.05475981  -0.0000386715  0.000465  0.000465  0.000480  0.000012
               *** Restarting incremental Fock matrix formation ***
 10  -1029.05474677   0.0000130337  0.000269  0.002830  0.000584  0.000017
 11  -1029.05474977  -0.0000029995  0.000196  0.001353  0.000982  0.000012
 12  -1029.05474942   0.0000003524  0.000221  0.001047  0.000660  0.000008
 13  -1029.05475068  -0.0000012599  0.000107  0.000506  0.000559  0.000006
 14  -1029.05475021   0.0000004676  0.000156  0.000471  0.000329  0.000004
 15  -1029.05475092  -0.0000007080  0.000007  0.000061  0.000083  0.000001
 16  -1029.05475091   0.0000000125  0.000016  0.000061  0.000047  0.000001
 17  -1029.05475093  -0.0000000191  0.000003  0.000010  0.000014  0.000000
 18  -1029.05475093   0.0000000007  0.000005  0.000007  0.000013  0.000000
 19  -1029.05475093  -0.0000000011  0.000001  0.000004  0.000004  0.000000
 20  -1029.05475093  -0.0000000002  0.000002  0.000002  0.000003  0.000000
                  ***Gradient check signals convergence***
              ***Rediagonalizing the Fockian in SOSCF/NRSCF***

               *****************************************************
               *                     SUCCESS                       *
               *           SCF CONVERGED AFTER  21 CYCLES          *
               *****************************************************

Old exchange energy                            =    -27.580162968 Eh
New exchange energy                            =    -27.580156588 Eh
Exchange energy change after final integration =      0.000006381 Eh
Total energy after final integration           =  -1029.054744546 Eh
Final COS-X integration done in                =    19.064 sec

----------------
TOTAL SCF ENERGY
----------------

Total Energy       :        -1029.05474455 Eh          -28002.00319 eV

Components:
Nuclear Repulsion  :         1789.06092952 Eh           48682.82288 eV
Electronic Energy  :        -2818.11567407 Eh          -76684.82607 eV
One Electron Energy:        -4949.18315865 Eh         -134674.12045 eV
Two Electron Energy:         2131.06748458 Eh           57989.29437 eV
Max COSX asymmetry :            0.00000046 Eh               0.00001 eV

Virial components:
Potential Energy   :        -2047.87962773 Eh          -55725.63771 eV
Kinetic Energy     :         1018.82488319 Eh           27723.63451 eV
Virial Ratio       :            2.01004084


DFT components:
N(Alpha)           :       81.999998530624 electrons
N(Beta)            :       81.999998530624 electrons
N(Total)           :      163.999997061249 electrons
E(X)               :     -109.689679513747 Eh       
E(C)               :       -6.600556102454 Eh       
E(XC)              :     -116.290235616201 Eh       
DFET-embed. en.    :        0.000000000000 Eh       

---------------
SCF CONVERGENCE
---------------

  Last Energy change         ...    1.7258e-10  Tolerance :   1.0000e-09
  Last MAX-Density change    ...    4.8850e-15  Tolerance :   1.0000e-08
  Last RMS-Density change    ...    4.8285e-17  Tolerance :   1.0000e-09
  Last Orbital Gradient      ...    2.1124e-07  Tolerance :   2.0000e-06
  Last Orbital Rotation      ...    1.9982e-06  Tolerance :   2.0000e-06

             **** THE GBW FILE WAS UPDATED (NO2_NH2_3.gbw) ****
             **** DENSITY NO2_NH2_3.scfp WAS UPDATED ****
             **** ENERGY FILE WAS UPDATED (NO2_NH2_3.en.tmp) ****
             **** THE GBW FILE WAS UPDATED (NO2_NH2_3.gbw) ****
             **** DENSITY NO2_NH2_3.scfp WAS UPDATED ****
----------------
ORBITAL ENERGIES
----------------

  NO   OCC          E(Eh)            E(eV) 
   0   2.0000     -19.139409      -520.8098 
   1   2.0000     -19.139102      -520.8014 
   2   2.0000     -14.537912      -395.5967 
   3   2.0000     -14.378743      -391.2655 
   4   2.0000     -10.240877      -278.6684 
   5   2.0000     -10.230419      -278.3839 
   6   2.0000     -10.219688      -278.0919 
   7   2.0000     -10.215093      -277.9668 
   8   2.0000     -10.214622      -277.9540 
   9   2.0000     -10.212558      -277.8978 
  10   2.0000     -10.209620      -277.8179 
  11   2.0000     -10.208752      -277.7943 
  12   2.0000     -10.207254      -277.7535 
  13   2.0000     -10.206444      -277.7315 
  14   2.0000     -10.204078      -277.6671 
  15   2.0000     -10.202879      -277.6344 
  16   2.0000     -10.201100      -277.5860 
  17   2.0000     -10.200794      -277.5777 
  18   2.0000     -10.200432      -277.5679 
  19   2.0000     -10.199833      -277.5516 
  20   2.0000     -10.199686      -277.5476 
  21   2.0000     -10.197512      -277.4884 
  22   2.0000     -10.197390      -277.4851 
  23   2.0000     -10.191458      -277.3237 
  24   2.0000      -1.198022       -32.5998 
  25   2.0000      -1.023449       -27.8495 
  26   2.0000      -0.912847       -24.8398 
  27   2.0000      -0.894111       -24.3300 
  28   2.0000      -0.859769       -23.3955 
  29   2.0000      -0.835319       -22.7302 
  30   2.0000      -0.826492       -22.4900 
  31   2.0000      -0.801053       -21.7978 
  32   2.0000      -0.779316       -21.2063 
  33   2.0000      -0.753795       -20.5118 
  34   2.0000      -0.748200       -20.3596 
  35   2.0000      -0.729946       -19.8628 
  36   2.0000      -0.708845       -19.2887 
  37   2.0000      -0.678716       -18.4688 
  38   2.0000      -0.639287       -17.3959 
  39   2.0000      -0.632356       -17.2073 
  40   2.0000      -0.623656       -16.9705 
  41   2.0000      -0.611650       -16.6439 
  42   2.0000      -0.588802       -16.0221 
  43   2.0000      -0.566395       -15.4124 
  44   2.0000      -0.542396       -14.7593 
  45   2.0000      -0.534674       -14.5492 
  46   2.0000      -0.532750       -14.4969 
  47   2.0000      -0.520992       -14.1769 
  48   2.0000      -0.518587       -14.1115 
  49   2.0000      -0.514934       -14.0121 
  50   2.0000      -0.503503       -13.7010 
  51   2.0000      -0.501742       -13.6531 
  52   2.0000      -0.479949       -13.0601 
  53   2.0000      -0.475708       -12.9447 
  54   2.0000      -0.461077       -12.5465 
  55   2.0000      -0.454358       -12.3637 
  56   2.0000      -0.447894       -12.1878 
  57   2.0000      -0.437529       -11.9058 
  58   2.0000      -0.428439       -11.6584 
  59   2.0000      -0.423908       -11.5351 
  60   2.0000      -0.417204       -11.3527 
  61   2.0000      -0.406240       -11.0543 
  62   2.0000      -0.403754       -10.9867 
  63   2.0000      -0.401752       -10.9322 
  64   2.0000      -0.388905       -10.5827 
  65   2.0000      -0.387407       -10.5419 
  66   2.0000      -0.384009       -10.4494 
  67   2.0000      -0.368022       -10.0144 
  68   2.0000      -0.360390        -9.8067 
  69   2.0000      -0.356017        -9.6877 
  70   2.0000      -0.341834        -9.3018 
  71   2.0000      -0.332743        -9.0544 
  72   2.0000      -0.329263        -8.9597 
  73   2.0000      -0.300902        -8.1880 
  74   2.0000      -0.291253        -7.9254 
  75   2.0000      -0.290936        -7.9168 
  76   2.0000      -0.285438        -7.7672 
  77   2.0000      -0.272767        -7.4224 
  78   2.0000      -0.266550        -7.2532 
  79   2.0000      -0.246520        -6.7082 
  80   2.0000      -0.234755        -6.3880 
  81   2.0000      -0.192717        -5.2441 
  82   0.0000      -0.097737        -2.6596 
  83   0.0000      -0.060141        -1.6365 
  84   0.0000      -0.042986        -1.1697 
  85   0.0000      -0.023419        -0.6373 
  86   0.0000      -0.013301        -0.3619 
  87   0.0000       0.003723         0.1013 
  88   0.0000       0.023074         0.6279 
  89   0.0000       0.028901         0.7864 
  90   0.0000       0.041234         1.1220 
  91   0.0000       0.061023         1.6605 
  92   0.0000       0.065564         1.7841 
  93   0.0000       0.075490         2.0542 
  94   0.0000       0.080101         2.1796 
  95   0.0000       0.083283         2.2662 
  96   0.0000       0.096353         2.6219 
  97   0.0000       0.101256         2.7553 
  98   0.0000       0.101720         2.7679 
  99   0.0000       0.123447         3.3592 
 100   0.0000       0.126656         3.4465 
 101   0.0000       0.152283         4.1438 
 102   0.0000       0.154971         4.2170 
 103   0.0000       0.184307         5.0153 
 104   0.0000       0.187195         5.0938 
 105   0.0000       0.199674         5.4334 
 106   0.0000       0.210309         5.7228 
 107   0.0000       0.221513         6.0277 
 108   0.0000       0.228014         6.2046 
 109   0.0000       0.229126         6.2348 
 110   0.0000       0.239076         6.5056 
 111   0.0000       0.245211         6.6725 
 112   0.0000       0.256152         6.9702 
 113   0.0000       0.260837         7.0977 
 114   0.0000       0.265474         7.2239 
 115   0.0000       0.272533         7.4160 
 116   0.0000       0.277302         7.5458 
 117   0.0000       0.293319         7.9816 
 118   0.0000       0.294516         8.0142 
 119   0.0000       0.306763         8.3475 
 120   0.0000       0.313613         8.5338 
 121   0.0000       0.317586         8.6420 
 122   0.0000       0.322865         8.7856 
 123   0.0000       0.328818         8.9476 
 124   0.0000       0.335565         9.1312 
 125   0.0000       0.339031         9.2255 
 126   0.0000       0.343125         9.3369 
 127   0.0000       0.348022         9.4702 
 128   0.0000       0.357940         9.7400 
 129   0.0000       0.364531         9.9194 
 130   0.0000       0.374616        10.1938 
 131   0.0000       0.384421        10.4606 
 132   0.0000       0.398948        10.8559 
 133   0.0000       0.403059        10.9678 
 134   0.0000       0.406453        11.0601 
 135   0.0000       0.423598        11.5267 
 136   0.0000       0.430026        11.7016 
 137   0.0000       0.436746        11.8845 
 138   0.0000       0.438162        11.9230 
 139   0.0000       0.448499        12.2043 
 140   0.0000       0.448862        12.2141 
 141   0.0000       0.454627        12.3710 
 142   0.0000       0.461284        12.5522 
 143   0.0000       0.464774        12.6472 
 144   0.0000       0.468539        12.7496 
 145   0.0000       0.470788        12.8108 
 146   0.0000       0.473844        12.8940 
 147   0.0000       0.476682        12.9712 
 148   0.0000       0.487936        13.2774 
 149   0.0000       0.493408        13.4263 
 150   0.0000       0.497522        13.5383 
 151   0.0000       0.500819        13.6280 
 152   0.0000       0.501303        13.6411 
 153   0.0000       0.517652        14.0860 
 154   0.0000       0.526489        14.3265 
 155   0.0000       0.532583        14.4923 
 156   0.0000       0.536508        14.5991 
 157   0.0000       0.541025        14.7220 
 158   0.0000       0.547066        14.8864 
 159   0.0000       0.560315        15.2469 
 160   0.0000       0.567751        15.4493 
 161   0.0000       0.584293        15.8994 
 162   0.0000       0.587434        15.9849 
 163   0.0000       0.598208        16.2781 
 164   0.0000       0.606473        16.5030 
 165   0.0000       0.618589        16.8327 
 166   0.0000       0.619632        16.8610 
 167   0.0000       0.627362        17.0714 
 168   0.0000       0.632269        17.2049 
 169   0.0000       0.634666        17.2701 
 170   0.0000       0.639450        17.4003 
 171   0.0000       0.644283        17.5318 
 172   0.0000       0.647653        17.6235 
 173   0.0000       0.655477        17.8364 
 174   0.0000       0.659957        17.9583 
 175   0.0000       0.660808        17.9815 
 176   0.0000       0.662246        18.0206 
 177   0.0000       0.665128        18.0991 
 178   0.0000       0.675268        18.3750 
 179   0.0000       0.690118        18.7791 
 180   0.0000       0.700633        19.0652 
 181   0.0000       0.713012        19.4020 
 182   0.0000       0.715757        19.4767 
 183   0.0000       0.721174        19.6241 
 184   0.0000       0.725263        19.7354 
 185   0.0000       0.730446        19.8764 
 186   0.0000       0.734228        19.9794 
 187   0.0000       0.743993        20.2451 
 188   0.0000       0.752034        20.4639 
 189   0.0000       0.754784        20.5387 
 190   0.0000       0.759598        20.6697 
 191   0.0000       0.761498        20.7214 
 192   0.0000       0.766050        20.8453 
 193   0.0000       0.776658        21.1339 
 194   0.0000       0.793755        21.5992 
 195   0.0000       0.795297        21.6411 
 196   0.0000       0.799460        21.7544 
 197   0.0000       0.804275        21.8854 
 198   0.0000       0.832573        22.6555 
 199   0.0000       0.835088        22.7239 
 200   0.0000       0.850574        23.1453 
 201   0.0000       0.857423        23.3317 
 202   0.0000       0.861108        23.4319 
 203   0.0000       0.869683        23.6653 
 204   0.0000       0.888941        24.1893 
 205   0.0000       0.902969        24.5710 
 206   0.0000       0.910777        24.7835 
 207   0.0000       0.919105        25.0101 
 208   0.0000       0.923703        25.1352 
 209   0.0000       0.954027        25.9604 
 210   0.0000       0.962981        26.2041 
 211   0.0000       0.993747        27.0412 
 212   0.0000       0.996269        27.1099 
 213   0.0000       1.005063        27.3491 
 214   0.0000       1.012353        27.5475 
 215   0.0000       1.031328        28.0639 
 216   0.0000       1.049472        28.5576 
 217   0.0000       1.051563        28.6145 
 218   0.0000       1.082890        29.4669 
 219   0.0000       1.096900        29.8482 
 220   0.0000       1.119090        30.4520 
 221   0.0000       1.122922        30.5563 
 222   0.0000       1.131233        30.7824 
 223   0.0000       1.140493        31.0344 
 224   0.0000       1.162716        31.6391 
 225   0.0000       1.177874        32.0516 
 226   0.0000       1.185504        32.2592 
 227   0.0000       1.191303        32.4170 
 228   0.0000       1.202009        32.7083 
 229   0.0000       1.209514        32.9125 
 230   0.0000       1.218038        33.1445 
 231   0.0000       1.220593        33.2140 
 232   0.0000       1.222912        33.2771 
 233   0.0000       1.231103        33.5000 
 234   0.0000       1.233984        33.5784 
 235   0.0000       1.238899        33.7122 
 236   0.0000       1.244637        33.8683 
 237   0.0000       1.247934        33.9580 
 238   0.0000       1.252242        34.0752 
 239   0.0000       1.260364        34.2962 
 240   0.0000       1.263184        34.3730 
 241   0.0000       1.276131        34.7253 
 242   0.0000       1.283400        34.9231 
 243   0.0000       1.290163        35.1071 
 244   0.0000       1.295101        35.2415 
 245   0.0000       1.307833        35.5879 
 246   0.0000       1.330383        36.2016 
 247   0.0000       1.336890        36.3786 
 248   0.0000       1.344208        36.5778 
 249   0.0000       1.346805        36.6484 
 250   0.0000       1.366432        37.1825 
 251   0.0000       1.374923        37.4136 
 252   0.0000       1.393664        37.9235 
 253   0.0000       1.402141        38.1542 
 254   0.0000       1.427955        38.8566 
 255   0.0000       1.435053        39.0498 
 256   0.0000       1.446071        39.3496 
 257   0.0000       1.474750        40.1300 
 258   0.0000       1.481207        40.3057 
 259   0.0000       1.501948        40.8701 
 260   0.0000       1.517022        41.2803 
 261   0.0000       1.540131        41.9091 
 262   0.0000       1.586222        43.1633 
 263   0.0000       1.619729        44.0751 
 264   0.0000       1.628096        44.3027 
 265   0.0000       1.643499        44.7219 
 266   0.0000       1.651631        44.9432 
 267   0.0000       1.656112        45.0651 
 268   0.0000       1.657863        45.1128 
 269   0.0000       1.673532        45.5391 
 270   0.0000       1.675266        45.5863 
 271   0.0000       1.676320        45.6150 
 272   0.0000       1.690008        45.9874 
 273   0.0000       1.694579        46.1118 
 274   0.0000       1.708504        46.4908 
 275   0.0000       1.717898        46.7464 
 276   0.0000       1.719246        46.7831 
 277   0.0000       1.722280        46.8656 
 278   0.0000       1.725500        46.9532 
 279   0.0000       1.737206        47.2718 
 280   0.0000       1.742090        47.4047 
 281   0.0000       1.745745        47.5041 
 282   0.0000       1.753599        47.7179 
 283   0.0000       1.758070        47.8395 
 284   0.0000       1.762549        47.9614 
 285   0.0000       1.764679        48.0194 
 286   0.0000       1.767712        48.1019 
 287   0.0000       1.772629        48.2357 
 288   0.0000       1.779734        48.4290 
 289   0.0000       1.790185        48.7134 
 290   0.0000       1.801191        49.0129 
 291   0.0000       1.807019        49.1715 
 292   0.0000       1.829429        49.7813 
 293   0.0000       1.832068        49.8531 
 294   0.0000       1.853711        50.4420 
 295   0.0000       1.857645        50.5491 
 296   0.0000       1.869252        50.8649 
 297   0.0000       1.887847        51.3709 
 298   0.0000       1.905044        51.8389 
 299   0.0000       1.907244        51.8987 
 300   0.0000       1.916662        52.1550 
 301   0.0000       1.940011        52.7904 
 302   0.0000       1.944452        52.9112 
 303   0.0000       1.957686        53.2713 
 304   0.0000       1.966619        53.5144 
 305   0.0000       1.978338        53.8333 
 306   0.0000       1.984198        53.9928 
 307   0.0000       1.991236        54.1843 
 308   0.0000       2.010222        54.7009 
 309   0.0000       2.019622        54.9567 
 310   0.0000       2.040633        55.5284 
 311   0.0000       2.042144        55.5696 
 312   0.0000       2.047929        55.7270 
 313   0.0000       2.053590        55.8810 
 314   0.0000       2.061242        56.0892 
 315   0.0000       2.064106        56.1672 
 316   0.0000       2.075468        56.4764 
 317   0.0000       2.089969        56.8710 
 318   0.0000       2.095485        57.0211 
 319   0.0000       2.114128        57.5283 
 320   0.0000       2.123030        57.7706 
 321   0.0000       2.131544        58.0023 
 322   0.0000       2.145273        58.3758 
 323   0.0000       2.153988        58.6130 
 324   0.0000       2.165459        58.9251 
 325   0.0000       2.180747        59.3411 
 326   0.0000       2.191672        59.6384 
 327   0.0000       2.206560        60.0436 
 328   0.0000       2.215464        60.2858 
 329   0.0000       2.225970        60.5717 
 330   0.0000       2.230960        60.7075 
 331   0.0000       2.244753        61.0828 
 332   0.0000       2.252775        61.3011 
 333   0.0000       2.257826        61.4386 
 334   0.0000       2.261187        61.5300 
 335   0.0000       2.279156        62.0190 
 336   0.0000       2.289050        62.2882 
 337   0.0000       2.299522        62.5732 
 338   0.0000       2.309236        62.8375 
 339   0.0000       2.311616        62.9023 
 340   0.0000       2.342201        63.7345 
 341   0.0000       2.368547        64.4514 
 342   0.0000       2.370034        64.4919 
 343   0.0000       2.379824        64.7583 
 344   0.0000       2.392297        65.0977 
 345   0.0000       2.413674        65.6794 
 346   0.0000       2.429613        66.1131 
 347   0.0000       2.431898        66.1753 
 348   0.0000       2.467348        67.1400 
 349   0.0000       2.472575        67.2822 
 350   0.0000       2.485517        67.6344 
 351   0.0000       2.505697        68.1835 
 352   0.0000       2.523013        68.6547 
 353   0.0000       2.531927        68.8972 
 354   0.0000       2.553502        69.4843 
 355   0.0000       2.564392        69.7806 
 356   0.0000       2.570730        69.9531 
 357   0.0000       2.582564        70.2751 
 358   0.0000       2.595720        70.6331 
 359   0.0000       2.601655        70.7946 
 360   0.0000       2.608176        70.9721 
 361   0.0000       2.620336        71.3030 
 362   0.0000       2.626811        71.4792 
 363   0.0000       2.649144        72.0869 
 364   0.0000       2.666215        72.5514 
 365   0.0000       2.671478        72.6946 
 366   0.0000       2.675436        72.8023 
 367   0.0000       2.681093        72.9562 
 368   0.0000       2.690467        73.2113 
 369   0.0000       2.703943        73.5780 
 370   0.0000       2.715830        73.9015 
 371   0.0000       2.724544        74.1386 
 372   0.0000       2.755687        74.9860 
 373   0.0000       2.765016        75.2399 
 374   0.0000       2.767542        75.3086 
 375   0.0000       2.774467        75.4971 
 376   0.0000       2.803379        76.2838 
 377   0.0000       2.808647        76.4272 
 378   0.0000       2.824229        76.8512 
 379   0.0000       2.842315        77.3433 
 380   0.0000       2.853867        77.6577 
 381   0.0000       2.870556        78.1118 
 382   0.0000       2.908794        79.1523 
 383   0.0000       2.932130        79.7873 
 384   0.0000       2.954020        80.3830 
 385   0.0000       2.962994        80.6272 
 386   0.0000       2.976477        80.9941 
 387   0.0000       2.996452        81.5376 
 388   0.0000       3.014730        82.0350 
 389   0.0000       3.038295        82.6762 
 390   0.0000       3.061660        83.3120 
 391   0.0000       3.088653        84.0465 
 392   0.0000       3.137794        85.3837 
 393   0.0000       3.190300        86.8125 
 394   0.0000       3.241100        88.1948 
 395   0.0000       3.283563        89.3503 
 396   0.0000       3.299287        89.7782 
 397   0.0000       3.310742        90.0899 
 398   0.0000       3.327421        90.5437 
 399   0.0000       3.380656        91.9923 
 400   0.0000       3.446161        93.7748 
 401   0.0000       3.497066        95.1600 
 402   0.0000       3.581543        97.4587 
 403   0.0000       3.633929        98.8842 
 404   0.0000       3.781274       102.8937 
 405   0.0000       3.783683       102.9593 

                    ********************************
                    * MULLIKEN POPULATION ANALYSIS *
                    ********************************

-----------------------
MULLIKEN ATOMIC CHARGES
-----------------------
   0 C :    0.074473
   1 C :   -0.022400
   2 C :   -0.031340
   3 C :    0.073319
   4 C :   -0.014748
   5 C :   -0.029873
   6 C :    0.055750
   7 C :    0.098848
   8 C :   -0.044790
   9 C :   -0.021970
  10 C :    0.059374
  11 C :   -0.004312
  12 C :   -0.044600
  13 C :    0.080955
  14 C :    0.053200
  15 C :    0.069031
  16 C :    0.040082
  17 C :   -0.027787
  18 C :    0.058530
  19 C :    0.020060
  20 N :   -0.175198
  21 N :    0.233053
  22 O :   -0.264624
  23 O :   -0.260999
  24 H :   -0.023343
  25 H :   -0.029843
  26 H :   -0.032152
  27 H :   -0.034605
[...]
    107      -0.000102  -0.007255  -0.000116   0.000039  -0.002668  -0.006921
    108      -0.000003   0.000323   0.000005   0.000022   0.017740  -0.038927
    109       0.000009  -0.000146  -0.000021  -0.000117  -0.486287   0.609422
    110      -0.000014   0.000152   0.000030   0.000144   0.382882  -0.493717
    111      -0.000005   0.000417   0.000011   0.000143   0.683797   0.540522
    112      -0.000014  -0.000684   0.000010   0.000091   0.330719   0.255192
    113       0.000001   0.000177   0.000000  -0.000022  -0.191142  -0.136378


-----------
IR SPECTRUM
-----------

 Mode   freq       eps      Int      T**2         TX        TY        TZ
       cm**-1   L/(mol*cm) km/mol    a.u.
----------------------------------------------------------------------------
  6:     21.68   0.000021    0.10  0.000297  ( 0.006139 -0.014051 -0.007862)
  7:     29.49   0.000023    0.12  0.000247  ( 0.006748 -0.011830  0.007826)
  8:     57.65   0.000850    4.30  0.004601  (-0.011417  0.045172  0.049300)
  9:     66.44   0.000036    0.18  0.000169  ( 0.008312  0.009996  0.000482)
 10:     95.43   0.002215   11.19  0.007242  (-0.000906 -0.083149  0.018083)
 11:    100.80   0.000102    0.51  0.000315  (-0.010171  0.009453 -0.011052)
 12:    119.09   0.000286    1.45  0.000749  (-0.011696 -0.013156 -0.020964)
 13:    123.44   0.000292    1.48  0.000738  (-0.006398  0.013247  0.022845)
 14:    165.12   0.000930    4.70  0.001758  ( 0.003240 -0.031345  0.027663)
 15:    206.88   0.001287    6.50  0.001942  (-0.005758  0.036365 -0.024208)
 16:    215.63   0.000089    0.45  0.000129  (-0.001027  0.007580  0.008378)
 17:    221.82   0.001041    5.26  0.001464  ( 0.003253 -0.014668  0.035186)
 18:    252.28   0.000840    4.25  0.001039  (-0.023987  0.021390  0.002501)
 19:    265.69   0.000205    1.03  0.000240  (-0.005783  0.013619  0.004639)
 20:    301.77   0.003183   16.09  0.003292  (-0.017461  0.054374  0.005523)
 21:    307.66   0.003444   17.41  0.003493  (-0.025394  0.051995  0.012045)
 22:    343.13   0.021822  110.28  0.019846  (-0.041960  0.126527  0.045571)
 23:    369.64   0.074843  378.23  0.063186  (-0.083595  0.225350  0.073588)
 24:    384.51   0.006191   31.29  0.005025  ( 0.023281 -0.057417 -0.034438)
 25:    422.04   0.002154   10.89  0.001593  (-0.023627  0.031925 -0.003932)
 26:    448.58   0.003973   20.08  0.002764  (-0.026641  0.043513  0.012669)
 27:    454.84   0.001556    7.86  0.001068  ( 0.019547 -0.026172 -0.000732)
 28:    498.95   0.016541   83.59  0.010346  ( 0.050339 -0.078539 -0.040537)
 29:    504.17   0.001556    7.87  0.000963  (-0.017054  0.017265  0.019349)
 30:    521.95   0.000486    2.46  0.000291  (-0.005949  0.015469  0.004002)
 31:    526.25   0.000098    0.49  0.000058  ( 0.000226  0.006709 -0.003592)
 32:    530.90   0.000729    3.69  0.000429  (-0.002638 -0.019836  0.005312)
 33:    561.10   0.000817    4.13  0.000454  (-0.003232  0.003277  0.020815)
 34:    570.34   0.001070    5.41  0.000585  ( 0.007616 -0.010452 -0.020445)
 35:    579.69   0.000960    4.85  0.000517  (-0.007727  0.021281 -0.002075)
 36:    603.02   0.000948    4.79  0.000490  (-0.010273  0.019526 -0.001901)
 37:    632.77   0.000259    1.31  0.000128  (-0.004135  0.010419 -0.001419)
 38:    666.89   0.000204    1.03  0.000095  (-0.005917  0.007371 -0.002435)
 39:    701.15   0.000191    0.96  0.000085  (-0.007930  0.004521 -0.001245)
 40:    718.04   0.001232    6.22  0.000535  ( 0.004841 -0.005808 -0.021866)
 41:    734.25   0.000585    2.96  0.000249  (-0.014860  0.000537 -0.005258)
 42:    742.20   0.000143    0.72  0.000060  ( 0.006897  0.000056 -0.003519)
 43:    761.94   0.002765   13.97  0.001132  (-0.005239  0.002870  0.033118)
 44:    775.12   0.001804    9.12  0.000726  (-0.020729  0.016645 -0.004429)
 45:    794.82   0.003526   17.82  0.001385  (-0.030347  0.021350 -0.002781)
 46:    817.92   0.000326    1.65  0.000124  ( 0.001306  0.006123  0.009229)
 47:    819.77   0.003295   16.65  0.001254  ( 0.002199 -0.035249  0.002669)
 48:    831.20   0.000165    0.83  0.000062  ( 0.004368  0.003255 -0.005673)
 49:    846.25   0.006602   33.36  0.002434  (-0.004888 -0.001181 -0.049083)
 50:    858.29   0.000558    2.82  0.000203  (-0.011242  0.000833 -0.008710)
 51:    870.60   0.003703   18.71  0.001327  (-0.003233  0.003923 -0.036076)
 52:    883.07   0.001017    5.14  0.000359  ( 0.006763 -0.007628  0.015979)
 53:    887.16   0.007946   40.16  0.002795  (-0.007908  0.008783  0.051532)
 54:    942.48   0.000661    3.34  0.000219  ( 0.002853 -0.003767  0.014017)
 55:    971.79   0.017480   88.33  0.005613  (-0.038075  0.046064 -0.045183)
 56:    985.32   0.012082   61.06  0.003827  ( 0.029825 -0.053449 -0.008963)
 57:    993.24   0.001365    6.90  0.000429  (-0.006476  0.014034  0.013787)
 58:    994.69   0.001056    5.33  0.000331  (-0.006842  0.013285 -0.010386)
 59:    999.82   0.001182    5.97  0.000369  ( 0.011705 -0.014757  0.003752)
 60:   1010.18   0.021750  109.92  0.006719  ( 0.045598 -0.068099  0.001530)
 61:   1010.71   0.005119   25.87  0.001581  (-0.018682  0.028451 -0.020544)
 62:   1015.36   0.000885    4.47  0.000272  (-0.002142  0.002189 -0.016202)
 63:   1017.61   0.000649    3.28  0.000199  ( 0.003338 -0.004534 -0.012933)
 64:   1070.46   0.004450   22.49  0.001297  (-0.012473  0.033760 -0.001433)
 65:   1119.56   0.000330    1.67  0.000092  ( 0.000487 -0.009561  0.000569)
 66:   1133.32   0.000143    0.72  0.000039  ( 0.004991 -0.003682  0.001007)
 67:   1179.08   0.000501    2.53  0.000133  ( 0.004975 -0.010206  0.001941)
 68:   1186.99   0.000080    0.40  0.000021  ( 0.004433  0.001067 -0.000439)
 69:   1201.45   0.003737   18.88  0.000971  ( 0.008560 -0.029869  0.002258)
 70:   1209.29   0.005636   28.48  0.001454  ( 0.037025 -0.008708  0.002766)
 71:   1233.54   0.000170    0.86  0.000043  (-0.004971 -0.004261  0.000439)
 72:   1251.01   0.092978  469.87  0.023193  (-0.083126  0.126661 -0.015508)
 73:   1263.01   0.047461  239.85  0.011727  (-0.051386  0.094873 -0.009237)
 74:   1270.59   0.000698    3.53  0.000171  ( 0.004158 -0.012196  0.002308)
 75:   1278.41   0.026579  134.32  0.006488  ( 0.042156 -0.068377  0.005956)
 76:   1292.43   0.022147  111.92  0.005347  (-0.042319  0.058918 -0.009232)
 77:   1320.00   0.007710   38.96  0.001823  (-0.026901  0.032896 -0.004113)
 78:   1328.03   0.013668   69.07  0.003212  (-0.024905  0.049989 -0.009622)
 79:   1332.28   0.002804   14.17  0.000657  ( 0.002933 -0.025075  0.004404)
 80:   1369.94   0.001846    9.33  0.000421  ( 0.005848 -0.019604  0.001450)
 81:   1377.48   0.003969   20.06  0.000899  ( 0.026074 -0.014650  0.002187)
 82:   1398.21   0.225545  1139.81  0.050339  ( 0.146464 -0.168967  0.018364)
 83:   1406.03   0.000825    4.17  0.000183  (-0.012116  0.005961 -0.000928)
 84:   1413.24   0.016146   81.60  0.003565  ( 0.044628 -0.039362  0.004930)
 85:   1426.23   0.005052   25.53  0.001105  ( 0.007222 -0.032311  0.003053)
 86:   1442.77   0.000198    1.00  0.000043  ( 0.002169 -0.006088  0.001065)
 87:   1467.53   0.003475   17.56  0.000739  ( 0.021725 -0.016231  0.001900)
 88:   1505.79   0.000415    2.10  0.000086  (-0.006218 -0.006862  0.000442)
 89:   1534.62   0.002443   12.35  0.000497  (-0.019177  0.011094 -0.002447)
 90:   1547.06   0.008502   42.96  0.001715  (-0.013540  0.038956 -0.003745)
 91:   1571.29   0.006317   31.92  0.001255  ( 0.024248 -0.025599  0.003370)
 92:   1613.29   0.002744   13.87  0.000531  (-0.010791 -0.019923 -0.004180)
 93:   1621.56   0.000077    0.39  0.000015  ( 0.001848 -0.001207  0.003149)
 94:   1626.69   0.077251  390.39  0.014820  (-0.104614  0.061160 -0.011623)
 95:   1643.99   0.051159  258.54  0.009711  ( 0.032163 -0.092556  0.010493)
 96:   1657.97   0.004246   21.46  0.000799  ( 0.021832  0.017936  0.000931)
 97:   1666.29   0.060254  304.50  0.011284  ( 0.027733 -0.102039  0.010154)
 98:   1693.20   0.038806  196.11  0.007152  ( 0.010631 -0.083730  0.005326)
 99:   1711.53   0.145747  736.55  0.026574  ( 0.091999 -0.132667  0.022572)
100:   3161.33   0.003871   19.56  0.000382  ( 0.015593 -0.011786  0.000195)
101:   3168.85   0.002844   14.37  0.000280  ( 0.016036 -0.004417 -0.001848)
102:   3172.02   0.001091    5.51  0.000107  (-0.010052  0.000150  0.002509)
103:   3174.22   0.000922    4.66  0.000091  (-0.009387  0.001378 -0.000786)
104:   3174.41   0.000879    4.44  0.000086  ( 0.008486  0.003375  0.001737)
105:   3177.74   0.001666    8.42  0.000164  ( 0.012718  0.001021  0.000902)
106:   3192.74   0.004321   21.84  0.000422  (-0.005400 -0.019799  0.001073)
107:   3198.44   0.002309   11.67  0.000225  (-0.005287 -0.014028  0.000739)
108:   3205.66   0.000951    4.81  0.000093  (-0.009212 -0.002765 -0.000251)
109:   3214.08   0.002742   13.86  0.000266  (-0.016172  0.002126 -0.000409)
110:   3223.59   0.000441    2.23  0.000043  ( 0.005829 -0.002918  0.000465)
111:   3254.02   0.003239   16.37  0.000311  ( 0.009216 -0.014957  0.001423)
112:   3574.83   0.033437  168.98  0.002919  ( 0.034229 -0.040099  0.011803)
113:   3691.50   0.008475   42.83  0.000716  ( 0.004728  0.022490 -0.013720)

* The epsilon (eps) is given for a Dirac delta lineshape.
** The dipole moment derivative (T) already includes vibrational overlap.

The first frequency considered to be a vibration is 6
The total number of vibrations considered is 108


--------------------------
THERMOCHEMISTRY AT 298.15K
--------------------------

Temperature         ... 298.15 K
Pressure            ... 1.00 atm
Total Mass          ... 314.34 AMU

Throughout the following assumptions are being made:
  (1) The electronic state is orbitally nondegenerate
  (2) There are no thermally accessible electronically excited states
  (3) Hindered rotations indicated by low frequency modes are not
      treated as such but are treated as vibrations and this may
      cause some error
  (4) All equations used are the standard statistical mechanics
      equations for an ideal gas
  (5) All vibrations are strictly harmonic

freq.      21.68  E(vib)   ...       0.56 
freq.      29.49  E(vib)   ...       0.55 
freq.      57.65  E(vib)   ...       0.51 
freq.      66.44  E(vib)   ...       0.50 
freq.      95.43  E(vib)   ...       0.47 
freq.     100.80  E(vib)   ...       0.46 
freq.     119.09  E(vib)   ...       0.44 
freq.     123.44  E(vib)   ...       0.43 
freq.     165.12  E(vib)   ...       0.39 
freq.     206.88  E(vib)   ...       0.35 
freq.     215.63  E(vib)   ...       0.34 
freq.     221.82  E(vib)   ...       0.33 
freq.     252.28  E(vib)   ...       0.30 
freq.     265.69  E(vib)   ...       0.29 
freq.     301.77  E(vib)   ...       0.26 
freq.     307.66  E(vib)   ...       0.26 
freq.     343.13  E(vib)   ...       0.23 
freq.     369.64  E(vib)   ...       0.21 
freq.     384.51  E(vib)   ...       0.20 
freq.     422.04  E(vib)   ...       0.18 
freq.     448.58  E(vib)   ...       0.17 
freq.     454.84  E(vib)   ...       0.16 
freq.     498.95  E(vib)   ...       0.14 
freq.     504.17  E(vib)   ...       0.14 
freq.     521.95  E(vib)   ...       0.13 
freq.     526.25  E(vib)   ...       0.13 
freq.     530.90  E(vib)   ...       0.13 
freq.     561.10  E(vib)   ...       0.11 
freq.     570.34  E(vib)   ...       0.11 
freq.     579.69  E(vib)   ...       0.11 
freq.     603.02  E(vib)   ...       0.10 
freq.     632.77  E(vib)   ...       0.09 
freq.     666.89  E(vib)   ...       0.08 
freq.     701.15  E(vib)   ...       0.07 
freq.     718.04  E(vib)   ...       0.07 
freq.     734.25  E(vib)   ...       0.06 
freq.     742.20  E(vib)   ...       0.06 
freq.     761.94  E(vib)   ...       0.06 
freq.     775.12  E(vib)   ...       0.05 
freq.     794.82  E(vib)   ...       0.05 
freq.     817.92  E(vib)   ...       0.05 
freq.     819.77  E(vib)   ...       0.05 
freq.     831.20  E(vib)   ...       0.04 
freq.     846.25  E(vib)   ...       0.04 
freq.     858.29  E(vib)   ...       0.04 
freq.     870.60  E(vib)   ...       0.04 
freq.     883.07  E(vib)   ...       0.04 
freq.     887.16  E(vib)   ...       0.04 
freq.     942.48  E(vib)   ...       0.03 
freq.     971.79  E(vib)   ...       0.03 
freq.     985.32  E(vib)   ...       0.02 
freq.     993.24  E(vib)   ...       0.02 
freq.     994.69  E(vib)   ...       0.02 
freq.     999.82  E(vib)   ...       0.02 
freq.    1010.18  E(vib)   ...       0.02 
freq.    1010.71  E(vib)   ...       0.02 
freq.    1015.36  E(vib)   ...       0.02 
freq.    1017.61  E(vib)   ...       0.02 
freq.    1070.46  E(vib)   ...       0.02 
freq.    1119.56  E(vib)   ...       0.01 
freq.    1133.32  E(vib)   ...       0.01 
freq.    1179.08  E(vib)   ...       0.01 
freq.    1186.99  E(vib)   ...       0.01 
freq.    1201.45  E(vib)   ...       0.01 
freq.    1209.29  E(vib)   ...       0.01 
freq.    1233.54  E(vib)   ...       0.01 
freq.    1251.01  E(vib)   ...       0.01 
freq.    1263.01  E(vib)   ...       0.01 
freq.    1270.59  E(vib)   ...       0.01 
freq.    1278.41  E(vib)   ...       0.01 
freq.    1292.43  E(vib)   ...       0.01 
freq.    1320.00  E(vib)   ...       0.01 
freq.    1328.03  E(vib)   ...       0.01 
freq.    1332.28  E(vib)   ...       0.01 
freq.    1369.94  E(vib)   ...       0.01 
freq.    1377.48  E(vib)   ...       0.01 
freq.    1398.21  E(vib)   ...       0.00 
freq.    1406.03  E(vib)   ...       0.00 
freq.    1413.24  E(vib)   ...       0.00 
freq.    1426.23  E(vib)   ...       0.00 
freq.    1442.77  E(vib)   ...       0.00 
freq.    1467.53  E(vib)   ...       0.00 
freq.    1505.79  E(vib)   ...       0.00 
freq.    1534.62  E(vib)   ...       0.00 
freq.    1547.06  E(vib)   ...       0.00 
freq.    1571.29  E(vib)   ...       0.00 
freq.    1613.29  E(vib)   ...       0.00 
freq.    1621.56  E(vib)   ...       0.00 
freq.    1626.69  E(vib)   ...       0.00 
freq.    1643.99  E(vib)   ...       0.00 
freq.    1657.97  E(vib)   ...       0.00 
freq.    1666.29  E(vib)   ...       0.00 
freq.    1693.20  E(vib)   ...       0.00 
freq.    1711.53  E(vib)   ...       0.00 
freq.    3161.33  E(vib)   ...       0.00 
freq.    3168.85  E(vib)   ...       0.00 
freq.    3172.02  E(vib)   ...       0.00 
freq.    3174.22  E(vib)   ...       0.00 
freq.    3174.41  E(vib)   ...       0.00 
freq.    3177.74  E(vib)   ...       0.00 
freq.    3192.74  E(vib)   ...       0.00 
freq.    3198.44  E(vib)   ...       0.00 
freq.    3205.66  E(vib)   ...       0.00 
freq.    3214.08  E(vib)   ...       0.00 
freq.    3223.59  E(vib)   ...       0.00 
freq.    3254.02  E(vib)   ...       0.00 
freq.    3574.83  E(vib)   ...       0.00 
freq.    3691.50  E(vib)   ...       0.00 

------------
INNER ENERGY
------------

The inner energy is: U= E(el) + E(ZPE) + E(vib) + E(rot) + E(trans)
    E(el)   - is the total energy from the electronic structure calculation
              = E(kin-el) + E(nuc-el) + E(el-el) + E(nuc-nuc)
    E(ZPE)  - the the zero temperature vibrational energy from the frequency calculation
    E(vib)  - the the finite temperature correction to E(ZPE) due to population
              of excited vibrational states
    E(rot)  - is the rotational thermal energy
    E(trans)- is the translational thermal energy

Summary of contributions to the inner energy U:
Electronic energy                ...  -1029.08426059 Eh
Zero point energy                ...      0.29411186 Eh     184.56 kcal/mol
Thermal vibrational correction   ...      0.01604908 Eh      10.07 kcal/mol
Thermal rotational correction    ...      0.00141627 Eh       0.89 kcal/mol
Thermal translational correction ...      0.00141627 Eh       0.89 kcal/mol
-----------------------------------------------------------------------
Total thermal energy                  -1028.77126711 Eh


Summary of corrections to the electronic energy:
(perhaps to be used in another calculation)
Total thermal correction                  0.01888162 Eh      11.85 kcal/mol
Non-thermal (ZPE) correction              0.29411186 Eh     184.56 kcal/mol
-----------------------------------------------------------------------
Total correction                          0.31299348 Eh     196.41 kcal/mol


--------
ENTHALPY
--------

The enthalpy is H = U + kB*T
                kB is Boltzmann's constant
Total free energy                 ...  -1028.77126711 Eh 
Thermal Enthalpy correction       ...      0.00094421 Eh       0.59 kcal/mol
-----------------------------------------------------------------------
Total Enthalpy                    ...  -1028.77032290 Eh


Note: Only C1 symmetry has been detected, increase convergence thresholds 
      if your molecule has a higher symmetry. Symmetry factor of 1.0 is   
      used for the rotational entropy correction. 
 

Note: Rotational entropy computed according to Herzberg 
Infrared and Raman Spectra, Chapter V,1, Van Nostrand Reinhold, 1945 
Point Group:  C1, Symmetry Number:   1  
Rotational constants in cm-1:     0.024911     0.003327     0.002938 

Vibrational entropy computed according to the QRRHO of S. Grimme
Chem.Eur.J. 2012 18 9955


-------
ENTROPY
-------

The entropy contributions are T*S = T*(S(el)+S(vib)+S(rot)+S(trans))
     S(el)   - electronic entropy
     S(vib)  - vibrational entropy
     S(rot)  - rotational entropy
     S(trans)- translational entropy
The entropies will be listed as multiplied by the temperature to get
units of energy

Electronic entropy                ...      0.00000000 Eh      0.00 kcal/mol
Vibrational entropy               ...      0.02794781 Eh     17.54 kcal/mol
Rotational entropy                ...      0.01669985 Eh     10.48 kcal/mol
Translational entropy             ...      0.02049332 Eh     12.86 kcal/mol
-----------------------------------------------------------------------
Final entropy term                ...      0.06514099 Eh     40.88 kcal/mol

In case the symmetry of your molecule has not been determined correctly
or in case you have a reason to use a different symmetry number we print 
out the resulting rotational entropy values for sn=1,12 :
 --------------------------------------------------------
|  sn= 1 | S(rot)=       0.01669985 Eh     10.48 kcal/mol|
|  sn= 2 | S(rot)=       0.01604540 Eh     10.07 kcal/mol|
|  sn= 3 | S(rot)=       0.01566256 Eh      9.83 kcal/mol|
|  sn= 4 | S(rot)=       0.01539094 Eh      9.66 kcal/mol|
|  sn= 5 | S(rot)=       0.01518025 Eh      9.53 kcal/mol|
|  sn= 6 | S(rot)=       0.01500811 Eh      9.42 kcal/mol|
|  sn= 7 | S(rot)=       0.01486256 Eh      9.33 kcal/mol|
|  sn= 8 | S(rot)=       0.01473648 Eh      9.25 kcal/mol|
|  sn= 9 | S(rot)=       0.01462528 Eh      9.18 kcal/mol|
|  sn=10 | S(rot)=       0.01452580 Eh      9.12 kcal/mol|
|  sn=11 | S(rot)=       0.01443581 Eh      9.06 kcal/mol|
|  sn=12 | S(rot)=       0.01435365 Eh      9.01 kcal/mol|
 --------------------------------------------------------


-------------------
GIBBS FREE ENERGY
-------------------

The Gibbs free energy is G = H - T*S

Total enthalpy                    ...  -1028.77032290 Eh 
Total entropy correction          ...     -0.06514099 Eh    -40.88 kcal/mol
-----------------------------------------------------------------------
Final Gibbs free energy         ...  -1028.83546389 Eh

For completeness - the Gibbs free energy minus the electronic energy
G-E(el)                           ...      0.24879670 Eh    156.12 kcal/mol


Timings for individual modules:

Sum of individual times         ...     5302.515 sec (=  88.375 min)
GTO integral calculation        ...      143.974 sec (=   2.400 min)   2.7 %
SCF iterations                  ...     3100.410 sec (=  51.674 min)  58.5 %
SCF Gradient evaluation         ...      595.104 sec (=   9.918 min)  11.2 %
Geometry relaxation             ...        9.065 sec (=   0.151 min)   0.2 %
Analytical frequency calculation...     1453.961 sec (=  24.233 min)  27.4 %
                             ****ORCA TERMINATED NORMALLY****
TOTAL RUN TIME: 0 days 1 hours 28 minutes 55 seconds 931 msec
