 Entering Gaussian System, Link 0=g16
 Initial command:
 /opt/bwhpc/common/chem/gaussian/g16.C.01/x86_64-Intel-avx2-source/g16/l1.exe "/tmp/ka_pr7831.18366023/g16.18366023.250815_105458/Gau-4151123.inp" -scrdir="/tmp/ka_pr7831.18366023/g16.18366023.250815_105458/"
 Entering Link 1 = /opt/bwhpc/common/chem/gaussian/g16.C.01/x86_64-Intel-avx2-source/g16/l1.exe PID=   4151125.
  
 Copyright (c) 1988-2019, Gaussian, Inc.  All Rights Reserved.
  
 This is part of the Gaussian(R) 16 program.  It is based on
 the Gaussian(R) 09 system (copyright 2009, Gaussian, Inc.),
 the Gaussian(R) 03 system (copyright 2003, Gaussian, Inc.),
 the Gaussian(R) 98 system (copyright 1998, Gaussian, Inc.),
 the Gaussian(R) 94 system (copyright 1995, Gaussian, Inc.),
 the Gaussian 92(TM) system (copyright 1992, Gaussian, Inc.),
 the Gaussian 90(TM) system (copyright 1990, Gaussian, Inc.),
 the Gaussian 88(TM) system (copyright 1988, Gaussian, Inc.),
 the Gaussian 86(TM) system (copyright 1986, Carnegie Mellon
 University), and the Gaussian 82(TM) system (copyright 1983,
 Carnegie Mellon University). Gaussian is a federally registered
 trademark of Gaussian, Inc.
  
 This software contains proprietary and confidential information,
 including trade secrets, belonging to Gaussian, Inc.
  
 This software is provided under written license and may be
 used, copied, transmitted, or stored only in accord with that
 written license.
  
 The following legend is applicable only to US Government
 contracts under FAR:
  
                    RESTRICTED RIGHTS LEGEND
  
 Use, reproduction and disclosure by the US Government is
 subject to restrictions as set forth in subparagraphs (a)
 and (c) of the Commercial Computer Software - Restricted
 Rights clause in FAR 52.227-19.
  
 Gaussian, Inc.
 340 Quinnipiac St., Bldg. 40, Wallingford CT 06492
  
  
 ---------------------------------------------------------------
 Warning -- This program may not be used in any manner that
 competes with the business of Gaussian, Inc. or will provide
 assistance to any competitor of Gaussian, Inc.  The licensee
 of this program is prohibited from giving any competitor of
 Gaussian, Inc. access to this program.  By using this program,
 the user acknowledges that Gaussian, Inc. is engaged in the
 business of creating and licensing software in the field of
 computational chemistry and represents and warrants to the
 licensee that it is not a competitor of Gaussian, Inc. and that
 it will not use this program in any manner prohibited above.
 ---------------------------------------------------------------
  

 Cite this work as:
 Gaussian 16, Revision C.01,
 M. J. Frisch, G. W. Trucks, H. B. Schlegel, G. E. Scuseria, 
 M. A. Robb, J. R. Cheeseman, G. Scalmani, V. Barone, 
 G. A. Petersson, H. Nakatsuji, X. Li, M. Caricato, A. V. Marenich, 
 J. Bloino, B. G. Janesko, R. Gomperts, B. Mennucci, H. P. Hratchian, 
 J. V. Ortiz, A. F. Izmaylov, J. L. Sonnenberg, D. Williams-Young, 
 F. Ding, F. Lipparini, F. Egidi, J. Goings, B. Peng, A. Petrone, 
 T. Henderson, D. Ranasinghe, V. G. Zakrzewski, J. Gao, N. Rega, 
 G. Zheng, W. Liang, M. Hada, M. Ehara, K. Toyota, R. Fukuda, 
 J. Hasegawa, M. Ishida, T. Nakajima, Y. Honda, O. Kitao, H. Nakai, 
 T. Vreven, K. Throssell, J. A. Montgomery, Jr., J. E. Peralta, 
 F. Ogliaro, M. J. Bearpark, J. J. Heyd, E. N. Brothers, K. N. Kudin, 
 V. N. Staroverov, T. A. Keith, R. Kobayashi, J. Normand, 
 K. Raghavachari, A. P. Rendell, J. C. Burant, S. S. Iyengar, 
 J. Tomasi, M. Cossi, J. M. Millam, M. Klene, C. Adamo, R. Cammi, 
 J. W. Ochterski, R. L. Martin, K. Morokuma, O. Farkas, 
 J. B. Foresman, and D. J. Fox, Gaussian, Inc., Wallingford CT, 2019.
 
 ******************************************
 Gaussian 16:  ES64L-G16RevC.01  3-Jul-2019
                15-Aug-2025 
 ******************************************
 %chk=m062x.chk
 %mem=10GB
 %nprocs=8
 Will use up to    8 processors via shared memory.
 ----------------------
 #P m062x/cc-pvdz polar
 ----------------------
 1/38=1,172=1/1;
 2/12=2,17=6,18=5,40=1/2;
 3/5=16,11=2,25=1,30=1,74=-55/1,2,3;
 4//1;
 5/5=2,38=5,98=1/2;
 8/6=4,10=90,11=11/1;
 10/6=1,13=10/2;
 6/7=2,8=2,9=2,10=2,28=1/1;
 99/5=1,9=1/99;
 Leave Link    1 at Fri Aug 15 10:55:00 2025, MaxMem=  1342177280 cpu:               0.1 elap:               0.0
 (Enter /opt/bwhpc/common/chem/gaussian/g16.C.01/x86_64-Intel-avx2-source/g16/l101.exe)
 --
 p1
 --
 Symbolic Z-matrix:
 Charge =  0 Multiplicity = 1
 C                    -1.78119   3.70635  -0.12212 
 C                    -0.52158   4.34491  -0.18699 
 C                     0.66215   3.63214  -0.16634 
 C                     0.6547    2.22324  -0.07569 
 C                     1.86617   1.46307  -0.06548 
 C                     1.84975   0.0989    0.0255 
 C                     0.62449  -0.64152   0.12484 
 C                     0.6001   -2.07139   0.23452 
 C                    -0.66359  -2.70356   0.29938 
 C                    -1.8512   -1.99174   0.2487 
 C                    -1.85503  -0.58665   0.15245 
 C                    -3.0657    0.17272   0.12327 
 C                    -3.057     1.53691   0.03815 
 C                    -1.82753   2.27704  -0.0294 
 C                    -0.59548   1.53329  -0.00271 
 C                    -0.60486   0.1007    0.09353 
 C                    -3.00536   4.49072  -0.15072 
 C                     1.83256  -2.85181   0.29164 
 C                    -3.11957   5.83204  -0.22823 
 C                     1.92174  -4.17668  -0.02224 
 N                     3.01829  -4.98527   0.10869 
 C                     3.0879   -6.22809  -0.63539 
 C                     4.26033  -4.44758   0.62004 
 N                    -4.43072   6.45566  -0.24669 
 O                    -4.43789   7.68039  -0.31586 
 O                    -5.43488   5.75503  -0.19418 
 H                    -0.47812   5.43349  -0.25805 
 H                     1.61945   4.15705  -0.22184 
 H                     2.81719   1.99747  -0.14043 
 H                     2.79838  -0.4381    0.0085 
 H                    -0.70934  -3.78679   0.43023 
 H                    -2.80592  -2.52212   0.30949 
 H                    -4.01802  -0.36311   0.17159 
 H                    -4.01029   2.06409   0.02045 
 H                    -3.96372   3.97086  -0.10622 
 H                     2.73941  -2.33161   0.60001 
 H                    -2.32484   6.5728   -0.28222 
 H                     1.04701  -4.69695  -0.42561 
 H                     2.07271  -6.60285  -0.83301 
 H                     3.60312  -6.11468  -1.61081 
 H                     3.62775  -6.99423  -0.05477 
 H                     4.95169  -5.27164   0.84914 
 H                     4.76004  -3.76752  -0.09973 
 H                     4.07869  -3.88285   1.54848 
 
 ITRead=  0  0  0  0  0  0  0  0  0  0  0  0  0  0  0  0  0  0  0  0
 ITRead=  0  0  0  0  0  0  0  0  0  0  0  0  0  0  0  0  0  0  0  0
 ITRead=  0  0  0  0
 MicOpt= -1 -1 -1 -1 -1 -1 -1 -1 -1 -1 -1 -1 -1 -1 -1 -1 -1 -1 -1 -1
 MicOpt= -1 -1 -1 -1 -1 -1 -1 -1 -1 -1 -1 -1 -1 -1 -1 -1 -1 -1 -1 -1
 MicOpt= -1 -1 -1 -1
 NAtoms=     44 NQM=       44 NQMF=       0 NMMI=      0 NMMIF=      0
                NMic=       0 NMicF=      0.
                    Isotopes and Nuclear Properties:
 (Nuclear quadrupole moments (NQMom) in fm**2, nuclear magnetic moments (NMagM)
  in nuclear magnetons)

  Atom         1           2           3           4           5           6           7           8           9          10
 IAtWgt=          12          12          12          12          12          12          12          12          12          12
 AtmWgt=  12.0000000  12.0000000  12.0000000  12.0000000  12.0000000  12.0000000  12.0000000  12.0000000  12.0000000  12.0000000
 NucSpn=           0           0           0           0           0           0           0           0           0           0
 AtZEff=  -0.0000000  -0.0000000  -0.0000000  -0.0000000  -0.0000000  -0.0000000  -0.0000000  -0.0000000  -0.0000000  -0.0000000
 NQMom=    0.0000000   0.0000000   0.0000000   0.0000000   0.0000000   0.0000000   0.0000000   0.0000000   0.0000000   0.0000000
 NMagM=    0.0000000   0.0000000   0.0000000   0.0000000   0.0000000   0.0000000   0.0000000   0.0000000   0.0000000   0.0000000
 AtZNuc=   6.0000000   6.0000000   6.0000000   6.0000000   6.0000000   6.0000000   6.0000000   6.0000000   6.0000000   6.0000000

  Atom        11          12          13          14          15          16          17          18          19          20
 IAtWgt=          12          12          12          12          12          12          12          12          12          12
 AtmWgt=  12.0000000  12.0000000  12.0000000  12.0000000  12.0000000  12.0000000  12.0000000  12.0000000  12.0000000  12.0000000
 NucSpn=           0           0           0           0           0           0           0           0           0           0
 AtZEff=  -0.0000000  -0.0000000  -0.0000000  -0.0000000  -0.0000000  -0.0000000  -0.0000000  -0.0000000  -0.0000000  -0.0000000
 NQMom=    0.0000000   0.0000000   0.0000000   0.0000000   0.0000000   0.0000000   0.0000000   0.0000000   0.0000000   0.0000000
 NMagM=    0.0000000   0.0000000   0.0000000   0.0000000   0.0000000   0.0000000   0.0000000   0.0000000   0.0000000   0.0000000
 AtZNuc=   6.0000000   6.0000000   6.0000000   6.0000000   6.0000000   6.0000000   6.0000000   6.0000000   6.0000000   6.0000000

  Atom        21          22          23          24          25          26          27          28          29          30
 IAtWgt=          14          12          12          14          16          16           1           1           1           1
 AtmWgt=  14.0030740  12.0000000  12.0000000  14.0030740  15.9949146  15.9949146   1.0078250   1.0078250   1.0078250   1.0078250
 NucSpn=           2           0           0           2           0           0           1           1           1           1
 AtZEff=  -0.0000000  -0.0000000  -0.0000000  -0.0000000  -0.0000000  -0.0000000  -0.0000000  -0.0000000  -0.0000000  -0.0000000
 NQMom=    2.0440000   0.0000000   0.0000000   2.0440000   0.0000000   0.0000000   0.0000000   0.0000000   0.0000000   0.0000000
 NMagM=    0.4037610   0.0000000   0.0000000   0.4037610   0.0000000   0.0000000   2.7928460   2.7928460   2.7928460   2.7928460
 AtZNuc=   7.0000000   6.0000000   6.0000000   7.0000000   8.0000000   8.0000000   1.0000000   1.0000000   1.0000000   1.0000000

  Atom        31          32          33          34          35          36          37          38          39          40
 IAtWgt=           1           1           1           1           1           1           1           1           1           1
 AtmWgt=   1.0078250   1.0078250   1.0078250   1.0078250   1.0078250   1.0078250   1.0078250   1.0078250   1.0078250   1.0078250
 NucSpn=           1           1           1           1           1           1           1           1           1           1
 AtZEff=  -0.0000000  -0.0000000  -0.0000000  -0.0000000  -0.0000000  -0.0000000  -0.0000000  -0.0000000  -0.0000000  -0.0000000
 NQMom=    0.0000000   0.0000000   0.0000000   0.0000000   0.0000000   0.0000000   0.0000000   0.0000000   0.0000000   0.0000000
 NMagM=    2.7928460   2.7928460   2.7928460   2.7928460   2.7928460   2.7928460   2.7928460   2.7928460   2.7928460   2.7928460
 AtZNuc=   1.0000000   1.0000000   1.0000000   1.0000000   1.0000000   1.0000000   1.0000000   1.0000000   1.0000000   1.0000000

  Atom        41          42          43          44
 IAtWgt=           1           1           1           1
 AtmWgt=   1.0078250   1.0078250   1.0078250   1.0078250
 NucSpn=           1           1           1           1
 AtZEff=  -0.0000000  -0.0000000  -0.0000000  -0.0000000
 NQMom=    0.0000000   0.0000000   0.0000000   0.0000000
 NMagM=    2.7928460   2.7928460   2.7928460   2.7928460
 AtZNuc=   1.0000000   1.0000000   1.0000000   1.0000000
 Leave Link  101 at Fri Aug 15 10:55:00 2025, MaxMem=  1342177280 cpu:               0.7 elap:               0.1
 (Enter /opt/bwhpc/common/chem/gaussian/g16.C.01/x86_64-Intel-avx2-source/g16/l202.exe)
                          Input orientation:                          
 ---------------------------------------------------------------------
 Center     Atomic      Atomic             Coordinates (Angstroms)
 Number     Number       Type             X           Y           Z
 ---------------------------------------------------------------------
      1          6           0       -1.781185    3.706351   -0.122116
      2          6           0       -0.521579    4.344912   -0.186991
      3          6           0        0.662149    3.632140   -0.166344
      4          6           0        0.654697    2.223239   -0.075691
      5          6           0        1.866173    1.463071   -0.065476
      6          6           0        1.849747    0.098903    0.025498
      7          6           0        0.624489   -0.641519    0.124843
      8          6           0        0.600098   -2.071389    0.234519
      9          6           0       -0.663592   -2.703559    0.299384
     10          6           0       -1.851199   -1.991745    0.248701
     11          6           0       -1.855034   -0.586655    0.152447
     12          6           0       -3.065702    0.172725    0.123268
     13          6           0       -3.056996    1.536910    0.038146
     14          6           0       -1.827525    2.277040   -0.029400
     15          6           0       -0.595476    1.533293   -0.002714
     16          6           0       -0.604864    0.100695    0.093531
     17          6           0       -3.005357    4.490721   -0.150715
     18          6           0        1.832563   -2.851811    0.291638
     19          6           0       -3.119573    5.832043   -0.228233
     20          6           0        1.921736   -4.176685   -0.022240
     21          7           0        3.018285   -4.985275    0.108690
     22          6           0        3.087895   -6.228088   -0.635387
     23          6           0        4.260329   -4.447576    0.620037
     24          7           0       -4.430720    6.455656   -0.246690
     25          8           0       -4.437889    7.680393   -0.315858
     26          8           0       -5.434878    5.755028   -0.194180
     27          1           0       -0.478125    5.433491   -0.258055
     28          1           0        1.619451    4.157050   -0.221841
     29          1           0        2.817195    1.997467   -0.140427
     30          1           0        2.798380   -0.438103    0.008503
     31          1           0       -0.709345   -3.786791    0.430227
     32          1           0       -2.805921   -2.522116    0.309487
     33          1           0       -4.018022   -0.363106    0.171589
     34          1           0       -4.010294    2.064087    0.020445
     35          1           0       -3.963721    3.970861   -0.106225
     36          1           0        2.739414   -2.331605    0.600012
     37          1           0       -2.324841    6.572803   -0.282216
     38          1           0        1.047012   -4.696955   -0.425614
     39          1           0        2.072714   -6.602852   -0.833014
     40          1           0        3.603124   -6.114678   -1.610813
     41          1           0        3.627750   -6.994232   -0.054769
     42          1           0        4.951691   -5.271636    0.849137
     43          1           0        4.760043   -3.767519   -0.099733
     44          1           0        4.078687   -3.882848    1.548483
 ---------------------------------------------------------------------
                    Distance matrix (angstroms):
                    1          2          3          4          5
     1  C    0.000000
     2  C    1.413711   0.000000
     3  C    2.444861   1.381913   0.000000
     4  C    2.852244   2.428479   1.411834   0.000000
     5  C    4.282375   3.744481   2.482884   1.430257   0.000000
     6  C    5.120463   4.867950   3.732419   2.439506   1.367296
     7  C    4.975161   5.125935   4.283733   2.871927   2.450978
     8  C    6.259391   6.527231   5.717935   4.306163   3.766344
     9  C    6.520247   7.066660   6.489652   5.113894   4.888112
    10  C    5.710578   6.489294   6.173918   4.914350   5.084615
    11  C    4.302410   5.119929   4.923014   3.774427   4.253969
    12  C    3.767852   4.896527   5.093948   4.252712   5.101373
    13  C    2.521875   3.789974   4.273622   3.776330   4.924813
    14  C    1.433064   2.450801   2.837874   2.483237   3.782493
    15  C    2.478376   2.818621   2.452255   1.429785   2.463450
    16  C    3.798814   4.254293   3.760846   2.473929   2.826195
    17  C    1.454184   2.488318   3.766697   4.306169   5.736352
    18  C    7.499324   7.587087   6.604637   5.222876   4.329765
    19  C    2.514182   2.993800   4.375481   5.224160   6.631145
    20  C    8.709986   8.866485   7.911073   6.524360   5.640195
    21  N    9.931392   9.983509   8.937945   7.588361   6.552774
    22  C   11.075399  11.181131  10.165055   8.812414   7.808414
    23  C   10.175323  10.041204   8.879589   7.614748   6.413864
    24  N    3.820239   4.442993   5.823745   6.618463   8.038010
    25  O    4.784205   5.145826   6.513148   7.468108   8.857708
    26  O    4.189480   5.111652   6.456095   7.040632   8.470113
    27  H    2.167824   1.091761   2.133893   3.409143   4.614874
    28  H    3.431821   2.149538   1.093177   2.166041   2.709769
    29  H    4.905682   4.081676   2.705005   2.175215   1.093453
    30  H    6.177862   5.825597   4.600102   3.418364   2.118713
    31  H    7.589538   8.157255   7.568185   6.183609   5.868565
    32  H    6.326939   7.254018   7.080169   5.885799   6.152298
    33  H    4.652975   5.875298   6.162807   5.346460   6.165620
    34  H    2.772414   4.173288   4.932080   4.668695   5.907747
    35  H    2.198563   3.463348   4.638644   4.938107   6.346522
    36  H    7.577216   7.471903   6.361493   5.054624   3.950315
    37  H    2.921942   2.867808   4.193213   5.276268   6.612182
    38  H    8.871661   9.180021   8.342012   6.940133   6.224680
    39  H   11.028943  11.269483  10.353222   8.971298   8.104991
    40  H   11.298656  11.333291  10.282815   8.976118   7.926370
    41  H   11.990146  12.075206  11.032997   9.685105   8.638821
    42  H   11.264067  11.113426   9.935220   8.688649   7.464128
    43  H    9.932114   9.680634   8.458849   7.262481   5.977853
    44  H    9.732674   9.584902   8.431394   7.186512   6.006573
                    6          7          8          9         10
     6  C    0.000000
     7  C    1.435044   0.000000
     8  C    2.513062   1.434278   0.000000
     9  C    3.774346   2.437546   1.414482   0.000000
    10  C    4.256481   2.822673   2.452632   1.385518   0.000000
    11  C    3.769816   2.480284   2.870339   2.433600   1.408388
    12  C    4.916976   3.778956   4.299594   3.751554   2.485091
    13  C    5.113135   4.278598   5.141276   4.876290   3.734927
    14  C    4.274299   3.814990   4.987168   5.125350   4.277900
    15  C    2.835028   2.496876   3.805181   4.248155   3.750459
    16  C    2.455555   1.436374   2.487923   2.812413   2.440437
    17  C    6.549133   6.292185   7.497266   7.579190   6.596512
    18  C    2.962742   2.524412   1.459894   2.500566   3.783076
    19  C    7.591273   7.486633   8.747247   8.897569   7.940271
    20  C    4.276460   3.768539   2.498985   2.992902   4.368342
    21  N    5.217400   4.959711   3.788693   4.335759   5.717753
    22  C    6.480787   6.152729   4.921790   5.231611   6.566801
    23  C    5.180236   5.286834   4.380888   5.233489   6.596951
    24  N    8.940171   8.721413   9.912173   9.918703   8.846350
    25  O    9.855449   9.750697  10.990062  11.065726  10.027958
    26  O    9.225279   8.816661   9.892296   9.724016   8.547011
    27  H    5.827282   6.186123   7.597922   8.158231   7.568108
    28  H    4.072194   4.912881   6.327779   7.249270   7.076333
    29  H    2.137295   3.441303   4.648837   5.865915   6.152977
    30  H    1.090215   2.186485   2.747935   4.147548   4.908165
    31  H    4.670265   3.430030   2.166921   1.092064   2.135175
    32  H    5.350293   3.916433   3.436530   2.150022   1.093838
    33  H    5.887743   4.651087   4.924350   4.092219   2.711740
    34  H    6.180782   5.367720   6.197072   5.831696   4.600387
    35  H    6.986116   6.509924   7.579798   7.456759   6.335723
    36  H    2.651216   2.748651   2.185857   3.436449   4.616563
    37  H    7.709297   7.804530   9.140259   9.441870   8.594050
    38  H    4.883456   4.114377   2.743922   2.724961   4.021504
    39  H    6.760198   6.209053   4.882866   4.896343   6.150570
    40  H    6.660363   6.468404   5.363917   5.787007   7.085620
    41  H    7.313023   7.029140   5.786601   6.078726   7.425352
    42  H    6.256446   6.378656   5.436515   6.199084   7.576115
    43  H    4.840942   5.188942   4.504856   5.541401   6.854437
    44  H    4.810613   4.946155   4.136238   5.043826   6.358400
                   11         12         13         14         15
    11  C    0.000000
    12  C    1.429414   0.000000
    13  C    2.442806   1.366866   0.000000
    14  C    2.869595   2.446330   1.436647   0.000000
    15  C    2.470777   2.822948   2.461862   1.439381   0.000000
    16  C    1.427882   2.462071   2.842310   2.499298   1.435858
    17  C    5.214872   4.327101   2.960293   2.510455   3.817828
    18  C    4.329975   5.759268   6.575174   6.309075   5.021070
    19  C    6.553141   5.670480   4.303841   3.787739   4.990109
    20  C    5.213715   6.619144   7.578692   7.463751   6.240239
    21  N    6.564984   7.976219   8.913636   8.731676   7.454086
    22  C    7.541817   8.911381   9.925146   9.842042   8.614321
    23  C    7.247277   8.675522   9.470792   9.094185   7.729000
    24  N    7.509168   6.440137   5.114911   4.927947   6.244860
    25  O    8.673784   7.644659   6.306708   6.007685   7.255966
    26  O    7.290567   6.072552   4.847765   5.013636   6.424914
    27  H    6.189228   5.875085   4.682057   3.440399   3.910309
    28  H    5.891933   6.159919   5.366738   3.931045   3.440642
    29  H    5.347260   6.165038   5.894923   4.654451   3.446845
    30  H    4.658010   5.896926   6.179562   5.363995   3.924893
    31  H    3.410372   4.617836   5.831550   6.183173   5.338885
    32  H    2.162141   2.713730   4.075825   4.909582   4.629241
    33  H    2.174593   1.093784   2.133410   3.436429   3.916699
    34  H    3.418918   2.116620   1.089499   2.193699   3.455903
    35  H    5.028361   3.909596   2.601367   2.727318   4.159030
    36  H    4.934990   6.340215   6.991385   6.518643   5.140253
    37  H    7.188010   6.455563   5.098912   4.331838   5.335306
    38  H    5.064642   6.397614   7.477902   7.553579   6.456980
    39  H    7.252101   8.557233   9.660671   9.731914   8.602644
    40  H    7.966155   9.328007  10.277308  10.119968   8.871622
    41  H    8.435693   9.808122  10.838581  10.757191   9.516145
    42  H    8.292523   9.718360  10.542915  10.183914   8.820644
    43  H    7.344436   8.764561   9.447860   8.940788   7.535887
    44  H    6.929853   8.337938   9.086961   8.678553   7.320423
                   16         17         18         19         20
    16  C    0.000000
    17  C    5.009426   0.000000
    18  C    3.833743   8.804199   0.000000
    19  C    6.267028   1.348407  10.010157   0.000000
    20  C    4.969214   9.970791   1.364464  11.208562   0.000000
    21  N    6.244560  11.231476   2.447667  12.441913   1.368715
    22  C    7.363511  12.339185   3.719473  13.570011   2.438059
    23  C    6.680874  11.544583   2.923757  12.682787   2.440270
    24  N    7.425526   2.429370  11.231538   1.452011  12.387523
    25  O    8.503617   3.500490  12.272528   2.272010  13.458133
    26  O    7.441995   2.739149  11.275167   2.316835  12.360755
    27  H    5.345876   2.699488   8.619029   2.671513   9.908099
    28  H    4.636922   4.637374   7.030875   5.026330   8.341604
    29  H    3.919562   6.333919   4.967059   7.068020   6.239869
    30  H    3.446680   7.615906   2.615139   8.625135   3.840110
    31  H    3.903438   8.609667   2.711953   9.938045   2.698023
    32  H    3.430805   7.030750   4.650220   8.377320   5.019799
    33  H    3.445410   4.968803   6.359041   6.272714   7.061280
    34  H    3.931565   2.632061   7.640588   3.879783   8.610345
    35  H    5.128353   1.091190   8.961253   2.047308  10.051277
    36  H    4.166150   8.950425   1.089994  10.082603   2.111898
    37  H    6.707286   2.194416  10.316815   1.087768  11.560817
    38  H    5.100554  10.045429   2.129812  11.325158   1.094776
    39  H    7.277737  12.219644   3.923369  13.488967   2.562506
    40  H    7.696936  12.580874   4.171392  13.777893   3.017690
    41  H    8.262869  13.263162   4.527952  14.493785   3.293951
    42  H    7.765834  12.633998   3.986893  13.769449   3.337490
    43  H    6.616847  11.335897   3.092221  12.420002   2.868694
    44  H    6.318319  11.098991   2.772683  12.220916   2.684390
                   21         22         23         24         25
    21  N    0.000000
    22  C    1.450200   0.000000
    23  C    1.446813   2.474048   0.000000
    24  N   13.656824  14.749848  13.970182   0.000000
    25  O   14.703534  15.817249  14.954013   1.226710   0.000000
    26  O   13.671203  14.711472  14.097982   1.225549   2.171594
    27  H   10.995911  12.200463  10.993610   4.082641   4.553201
    28  H    9.254625  10.496592   9.040054   6.472153   7.008148
    29  H    6.990077   8.244878   6.648272   8.509935   9.217519
    30  H    4.553588   5.832867   4.311280   9.992443  10.880201
    31  H    3.928737   4.638372   5.017003  10.918542  12.081183
    32  H    6.326835   7.025958   7.330465   9.140552  10.351114
    33  H    8.418908   9.248961   9.242028   6.844033   8.069186
    34  H    9.955010  10.935016  10.543456   4.419728   5.642591
    35  H   11.358123  12.410635  11.791205   2.532197   3.745585
    36  H    2.713140   4.102466   2.605938  11.372936  12.352838
    37  H   12.739347  13.902707  12.869626   2.109433   2.385971
    38  H    2.062651   2.559996   3.388360  12.426515  13.538646
    39  H    2.097014   1.100044   3.397386  14.600104  15.705619
    40  H    2.138756   1.108954   2.861440  14.980546  16.019950
    41  H    2.105725   1.102514   2.709424  15.680409  16.747158
    42  H    2.090053   2.567556   1.099792  15.058546  16.039840
    43  H    2.135436   3.022814   1.109171  13.747909  14.686842
    44  H    2.100667   3.354268   1.101782  13.509896  14.481587
                   26         27         28         29         30
    26  O    0.000000
    27  H    4.967582   0.000000
    28  H    7.233108   2.455695   0.000000
    29  H    9.067462   4.762272   2.470834   0.000000
    30  H   10.304489   6.729202   4.749565   2.440192   0.000000
    31  H   10.666155   9.248826   8.303799   6.798511   4.867822
    32  H    8.699208   8.308575   8.029786   7.228311   5.986809
    33  H    6.290694   6.805586   7.236552   7.238083   6.818765
    34  H    3.962140   4.889444   6.011092   6.829709   7.253906
    35  H    2.314150   3.783083   5.587471   7.062313   8.073298
    36  H   11.525773   8.448997   6.635692   4.392626   1.984618
    37  H    3.216960   2.170018   4.625683   6.884355   8.688194
    38  H   12.300911  10.245978   8.874830   6.930380   4.625318
    39  H   14.473744  12.317098  10.786773   8.660220   6.264094
    40  H   14.986069  12.322612  10.553322   8.281704   5.957625
    41  H   15.642708  13.089990  11.331914   9.028565   6.608683
    42  H   15.184092  12.054398  10.057382   7.640364   5.357840
    43  H   13.950779  10.588770   8.525082   6.083697   3.865856
    44  H   13.654063  10.527216   8.591964   6.246749   3.984594
                   31         32         33         34         35
    31  H    0.000000
    32  H    2.451451   0.000000
    33  H    4.768213   2.479824   0.000000
    34  H    6.730302   4.750507   2.431907   0.000000
    35  H    8.429704   6.608484   4.343201   1.911544   0.000000
    36  H    3.747043   5.556207   7.051346   8.075678   9.227777
    37  H   10.508976   9.126834   7.153994   4.822953   3.080098
    38  H    2.155377   4.485018   6.692792   8.454999  10.017010
    39  H    4.155217   6.462104   8.777285  10.622957  12.197138
    40  H    5.308700   7.594071   9.712848  11.292358  12.697993
    41  H    5.416022   7.843763  10.123285  11.848988  13.336654
    42  H    5.867501   8.248128  10.247365  11.611061  12.877151
    43  H    5.495037   7.678691   9.419027  10.532848  11.661330
    44  H    4.917822   7.126326   8.935386  10.155420  11.362180
                   36         37         38         39         40
    36  H    0.000000
    37  H   10.281707   0.000000
    38  H    3.083993  11.764243   0.000000
    39  H    4.554295  13.901070   2.202381   0.000000
    40  H    4.466026  14.066916   3.154100   1.784780   0.000000
    41  H    4.791448  14.817204   3.474941   1.782408   1.787595
    42  H    3.687819  13.946993   4.147501   3.590302   2.929284
    43  H    2.575739  12.535994   3.841438   3.974739   3.021751
    44  H    2.258230  12.396664   3.708219   4.134475   3.897227
                   41         42         43         44
    41  H    0.000000
    42  H    2.353126   0.000000
    43  H    3.419911   1.788701   0.000000
    44  H    3.529090   1.783243   1.787222   0.000000
 Stoichiometry    C22H18N2O2
 Framework group  C1[X(C22H18N2O2)]
 Deg. of freedom   126
 Full point group                 C1      NOp   1
 Largest Abelian subgroup         C1      NOp   1
 Largest concise Abelian subgroup C1      NOp   1
                         Standard orientation:                         
 ---------------------------------------------------------------------
 Center     Atomic      Atomic             Coordinates (Angstroms)
 Number     Number       Type             X           Y           Z
 ---------------------------------------------------------------------
      1          6           0        3.186529    0.523838    0.027045
      2          6           0        3.072340    1.932403    0.065572
      3          6           0        1.845028    2.567512    0.060567
      4          6           0        0.646930    1.822125    0.013312
      5          6           0       -0.635032    2.456289    0.020043
      6          6           0       -1.790342    1.726656   -0.028861
      7          6           0       -1.781695    0.293348   -0.098892
      8          6           0       -2.989228   -0.477834   -0.164426
      9          6           0       -2.867458   -1.886534   -0.203118
     10          6           0       -1.638227   -2.524829   -0.168042
     11          6           0       -0.437333   -1.790936   -0.115011
     12          6           0        0.843977   -2.424434   -0.102767
     13          6           0        2.003208   -1.701489   -0.059673
     14          6           0        1.991362   -0.265400   -0.021439
     15          6           0        0.712227    0.394544   -0.031784
     16          6           0       -0.505170   -0.365007   -0.083889
     17          6           0        4.496179   -0.108100    0.038012
     18          6           0       -4.300526    0.162648   -0.204065
     19          6           0        5.700123    0.498002    0.074862
     20          6           0       -5.468185   -0.448115    0.149918
     21          7           0       -6.734034    0.060314    0.038092
     22          6           0       -7.811491   -0.515310    0.819645
     23          6           0       -6.938417    1.389263   -0.496129
     24          7           0        6.918168   -0.292355    0.081096
     25          8           0        7.966578    0.343773    0.112615
     26          8           0        6.846035   -1.515511    0.055479
     27          1           0        3.978330    2.540458    0.102904
     28          1           0        1.792118    3.658870    0.094819
     29          1           0       -0.676120    3.547662    0.073481
     30          1           0       -2.743987    2.254217   -0.000398
     31          1           0       -3.769090   -2.494981   -0.300353
     32          1           0       -1.591443   -3.616956   -0.207426
     33          1           0        0.885147   -3.517115   -0.129538
     34          1           0        2.951737   -2.237452   -0.053129
     35          1           0        4.554204   -1.197495    0.014611
     36          1           0       -4.339547    1.201062   -0.533094
     37          1           0        5.916125    1.563767    0.101827
     38          1           0       -5.443816   -1.457234    0.573733
     39          1           0       -7.594477   -1.572200    1.034085
     40          1           0       -7.961841    0.003087    1.788376
     41          1           0       -8.760235   -0.468217    0.259999
     42          1           0       -8.007584    1.542376   -0.703451
     43          1           0       -6.604051    2.185653    0.199732
     44          1           0       -6.384103    1.510851   -1.440521
 ---------------------------------------------------------------------
 Rotational constants (GHZ):           0.6879019           0.0739567           0.0671651
 Leave Link  202 at Fri Aug 15 10:55:00 2025, MaxMem=  1342177280 cpu:               0.1 elap:               0.0
 (Enter /opt/bwhpc/common/chem/gaussian/g16.C.01/x86_64-Intel-avx2-source/g16/l301.exe)
 Standard basis: CC-pVDZ (5D, 7F)
 Ernie: Thresh=  0.10000D-02 Tol=  0.10000D-05 Strict=F.
 Ernie:  52 primitive shells out of 662 were deleted.
 There are   480 symmetry adapted cartesian basis functions of A   symmetry.
 There are   454 symmetry adapted basis functions of A   symmetry.
   454 basis functions,   984 primitive gaussians,   480 cartesian basis functions
    90 alpha electrons       90 beta electrons
       nuclear repulsion energy      2038.6634330680 Hartrees.
 IExCor= 4336 DFT=T Ex+Corr=M062X ExCW=0 ScaHFX=  0.540000
 ScaDFX=  1.000000  1.000000  1.000000  1.000000 ScalE2=  1.000000  1.000000
 IRadAn=      5 IRanWt=     -1 IRanGd=            0 ICorTp=0 IEmpDi=  4
 NAtoms=   44 NActive=   44 NUniq=   44 SFac= 1.00D+00 NAtFMM=   60 NAOKFM=F Big=F
 Integral buffers will be    131072 words long.
 Raffenetti 2 integral format.
 Two-electron integral symmetry is turned on.
 Leave Link  301 at Fri Aug 15 10:55:00 2025, MaxMem=  1342177280 cpu:               0.4 elap:               0.1
 (Enter /opt/bwhpc/common/chem/gaussian/g16.C.01/x86_64-Intel-avx2-source/g16/l302.exe)
 NPDir=0 NMtPBC=     1 NCelOv=     1 NCel=       1 NClECP=     1 NCelD=      1
         NCelK=      1 NCelE2=     1 NClLst=     1 CellRange=     0.0.
 One-electron integrals computed using PRISM.
 One-electron integral symmetry used in STVInt
 NBasis=   454 RedAO= T EigKep=  6.92D-05  NBF=   454
 NBsUse=   454 1.00D-06 EigRej= -1.00D+00 NBFU=   454
 Precomputing XC quadrature grid using
 IXCGrd= 4 IRadAn=           5 IRanWt=          -1 IRanGd=           0 AccXCQ= 0.00D+00.
 Generated NRdTot=       0 NPtTot=           0 NUsed=           0 NTot=          32
 NSgBfM=   460   460   460   460   460 MxSgAt=    44 MxSgA2=    44.
 Leave Link  302 at Fri Aug 15 10:55:01 2025, MaxMem=  1342177280 cpu:               4.9 elap:               0.6
 (Enter /opt/bwhpc/common/chem/gaussian/g16.C.01/x86_64-Intel-avx2-source/g16/l303.exe)
 DipDrv:  MaxL=1.
 Leave Link  303 at Fri Aug 15 10:55:01 2025, MaxMem=  1342177280 cpu:               0.5 elap:               0.1
 (Enter /opt/bwhpc/common/chem/gaussian/g16.C.01/x86_64-Intel-avx2-source/g16/l401.exe)
 ExpMin= 1.22D-01 ExpMax= 1.17D+04 ExpMxC= 4.01D+02 IAcc=3 IRadAn=         5 AccDes= 0.00D+00
 Harris functional with IExCor= 1009 and IRadAn=       5 diagonalized for initial guess.
 HarFok:  IExCor= 1009 AccDes= 0.00D+00 IRadAn=         5 IDoV= 1 UseB2=F ITyADJ=14
 ICtDFT=  3500011 ScaDFX=  1.000000  1.000000  1.000000  1.000000
 FoFCou: FMM=F IPFlag=           0 FMFlag=      100000 FMFlg1=           0
         NFxFlg=           0 DoJE=T BraDBF=F KetDBF=T FulRan=T
         wScrn=  0.000000 ICntrl=       500 IOpCl=  0 I1Cent=   200000004 NGrid=           0
         NMat0=    1 NMatS0=      1 NMatT0=    0 NMatD0=    1 NMtDS0=    0 NMtDT0=    0
 Petite list used in FoFCou.
 Harris En= -1108.09046985973    
 JPrj=0 DoOrth=F DoCkMO=F.
 Leave Link  401 at Fri Aug 15 10:55:05 2025, MaxMem=  1342177280 cpu:              28.8 elap:               3.6
 (Enter /opt/bwhpc/common/chem/gaussian/g16.C.01/x86_64-Intel-avx2-source/g16/l502.exe)
 Integral symmetry usage will be decided dynamically.
 Closed shell SCF:
 Using DIIS extrapolation, IDIIS=  1040.
 NGot=  1342177280 LenX=  1341706554 LenY=  1341475674
 Requested convergence on RMS density matrix=1.00D-08 within 128 cycles.
 Requested convergence on MAX density matrix=1.00D-06.
 Requested convergence on             energy=1.00D-06.
 No special actions if energy rises.
 Fock matrices will be formed incrementally for  20 cycles.
 Integral accuracy reduced to 1.0D-05 until final iterations.

 Cycle   1  Pass 0  IDiag  1:
 FoFJK:  IHMeth= 1 ICntrl=       0 DoSepK=F KAlg= 0 I1Cent=           0 FoldK=F
 IRaf= 700000000 NMat=       1 IRICut=       1 DoRegI=T DoRafI=F ISym2E= 0 IDoP0=0 IntGTp=1.
 FoFCou: FMM=F IPFlag=           0 FMFlag=      100000 FMFlg1=           0
         NFxFlg=           0 DoJE=F BraDBF=F KetDBF=F FulRan=T
         wScrn=  0.000000 ICntrl=         0 IOpCl=  0 I1Cent=           0 NGrid=           0
         NMat0=    1 NMatS0=      1 NMatT0=    0 NMatD0=    1 NMtDS0=    0 NMtDT0=    0
 Symmetry not used in FoFCou.
 E= -1108.15227611220    
 DIIS: error= 4.02D-02 at cycle   1 NSaved=   1.
 NSaved= 1 IEnMin= 1 EnMin= -1108.15227611220     IErMin= 1 ErrMin= 4.02D-02
 ErrMax= 4.02D-02  0.00D+00 EMaxC= 1.00D-01 BMatC= 5.65D-01 BMatP= 5.65D-01
 IDIUse=3 WtCom= 5.98D-01 WtEn= 4.02D-01
 Coeff-Com:  0.100D+01
 Coeff-En:   0.100D+01
 Coeff:      0.100D+01
 Gap=     0.156 Goal=   None    Shift=    0.000
 GapD=    0.156 DampG=1.000 DampE=0.500 DampFc=0.5000 IDamp=-1.
 Damping current iteration by 5.00D-01
 RMSDP=5.94D-03 MaxDP=2.09D-01              OVMax= 2.56D-01

 Cycle   2  Pass 0  IDiag  1:
 RMSU=  2.62D-03    CP:  9.20D-01
 E= -1108.41251988112     Delta-E=       -0.260243768920 Rises=F Damp=T
 DIIS: error= 8.36D-03 at cycle   2 NSaved=   2.
 NSaved= 2 IEnMin= 2 EnMin= -1108.41251988112     IErMin= 2 ErrMin= 8.36D-03
 ErrMax= 8.36D-03  0.00D+00 EMaxC= 1.00D-01 BMatC= 4.88D-02 BMatP= 5.65D-01
 IDIUse=3 WtCom= 9.16D-01 WtEn= 8.36D-02
 Coeff-Com: -0.676D-03 0.100D+01
 Coeff-En:   0.000D+00 0.100D+01
 Coeff:     -0.620D-03 0.100D+01
 Gap=     0.201 Goal=   None    Shift=    0.000
 RMSDP=2.12D-03 MaxDP=7.97D-02 DE=-2.60D-01 OVMax= 1.90D-01

 Cycle   3  Pass 0  IDiag  1:
 RMSU=  1.23D-03    CP:  8.60D-01  1.53D+00
 E= -1108.67096242911     Delta-E=       -0.258442547995 Rises=F Damp=F
 DIIS: error= 1.39D-02 at cycle   3 NSaved=   3.
 NSaved= 3 IEnMin= 3 EnMin= -1108.67096242911     IErMin= 2 ErrMin= 8.36D-03
 ErrMax= 1.39D-02  0.00D+00 EMaxC= 1.00D-01 BMatC= 3.16D-02 BMatP= 4.88D-02
 IDIUse=3 WtCom= 8.61D-01 WtEn= 1.39D-01
 Coeff-Com: -0.762D-01 0.470D+00 0.607D+00
 Coeff-En:   0.000D+00 0.000D+00 0.100D+01
 Coeff:     -0.656D-01 0.405D+00 0.661D+00
 Gap=     0.154 Goal=   None    Shift=    0.000
 RMSDP=4.95D-04 MaxDP=3.85D-02 DE=-2.58D-01 OVMax= 5.76D-02

 Cycle   4  Pass 0  IDiag  1:
 RMSU=  3.44D-04    CP:  8.68D-01  1.50D+00  7.34D-01
 E= -1108.69319232340     Delta-E=       -0.022229894291 Rises=F Damp=F
 DIIS: error= 4.71D-03 at cycle   4 NSaved=   4.
 NSaved= 4 IEnMin= 4 EnMin= -1108.69319232340     IErMin= 4 ErrMin= 4.71D-03
 ErrMax= 4.71D-03  0.00D+00 EMaxC= 1.00D-01 BMatC= 5.28D-03 BMatP= 3.16D-02
 IDIUse=3 WtCom= 9.53D-01 WtEn= 4.71D-02
 Coeff-Com: -0.137D-01 0.507D-01 0.311D+00 0.652D+00
 Coeff-En:   0.000D+00 0.000D+00 0.122D+00 0.878D+00
 Coeff:     -0.131D-01 0.483D-01 0.302D+00 0.662D+00
 Gap=     0.153 Goal=   None    Shift=    0.000
 RMSDP=1.79D-04 MaxDP=1.18D-02 DE=-2.22D-02 OVMax= 1.78D-02

 Cycle   5  Pass 0  IDiag  1:
 RMSU=  1.01D-04    CP:  8.67D-01  1.50D+00  8.18D-01  7.00D-01
 E= -1108.69751480005     Delta-E=       -0.004322476641 Rises=F Damp=F
 DIIS: error= 9.84D-04 at cycle   5 NSaved=   5.
 NSaved= 5 IEnMin= 5 EnMin= -1108.69751480005     IErMin= 5 ErrMin= 9.84D-04
 ErrMax= 9.84D-04  0.00D+00 EMaxC= 1.00D-01 BMatC= 3.13D-04 BMatP= 5.28D-03
 IDIUse=3 WtCom= 9.90D-01 WtEn= 9.84D-03
 Coeff-Com: -0.251D-02 0.163D-02 0.125D+00 0.340D+00 0.536D+00
 Coeff-En:   0.000D+00 0.000D+00 0.000D+00 0.000D+00 0.100D+01
 Coeff:     -0.248D-02 0.161D-02 0.124D+00 0.336D+00 0.540D+00
 Gap=     0.154 Goal=   None    Shift=    0.000
 RMSDP=5.09D-05 MaxDP=3.89D-03 DE=-4.32D-03 OVMax= 6.12D-03

 Cycle   6  Pass 0  IDiag  1:
 RMSU=  4.41D-05    CP:  8.66D-01  1.50D+00  8.14D-01  7.45D-01  8.18D-01
 E= -1108.69779077637     Delta-E=       -0.000275976320 Rises=F Damp=F
 DIIS: error= 4.60D-04 at cycle   6 NSaved=   6.
 NSaved= 6 IEnMin= 6 EnMin= -1108.69779077637     IErMin= 6 ErrMin= 4.60D-04
 ErrMax= 4.60D-04  0.00D+00 EMaxC= 1.00D-01 BMatC= 5.09D-05 BMatP= 3.13D-04
 IDIUse=3 WtCom= 9.95D-01 WtEn= 4.60D-03
 Coeff-Com:  0.620D-03-0.558D-02 0.287D-01 0.965D-01 0.312D+00 0.568D+00
 Coeff-En:   0.000D+00 0.000D+00 0.000D+00 0.000D+00 0.472D-01 0.953D+00
 Coeff:      0.617D-03-0.556D-02 0.286D-01 0.961D-01 0.310D+00 0.570D+00
 Gap=     0.155 Goal=   None    Shift=    0.000
 RMSDP=1.98D-05 MaxDP=1.94D-03 DE=-2.76D-04 OVMax= 2.91D-03

 Cycle   7  Pass 0  IDiag  1:
 RMSU=  1.52D-05    CP:  8.66D-01  1.50D+00  8.17D-01  7.48D-01  9.11D-01
                    CP:  8.36D-01
 E= -1108.69784398501     Delta-E=       -0.000053208650 Rises=F Damp=F
 DIIS: error= 1.27D-04 at cycle   7 NSaved=   7.
 NSaved= 7 IEnMin= 7 EnMin= -1108.69784398501     IErMin= 7 ErrMin= 1.27D-04
 ErrMax= 1.27D-04  0.00D+00 EMaxC= 1.00D-01 BMatC= 5.20D-06 BMatP= 5.09D-05
 IDIUse=3 WtCom= 9.99D-01 WtEn= 1.27D-03
 Coeff-Com:  0.105D-02-0.371D-02-0.996D-02-0.191D-01 0.513D-01 0.261D+00
 Coeff-Com:  0.720D+00
 Coeff-En:   0.000D+00 0.000D+00 0.000D+00 0.000D+00 0.000D+00 0.000D+00
 Coeff-En:   0.100D+01
 Coeff:      0.105D-02-0.371D-02-0.994D-02-0.191D-01 0.512D-01 0.260D+00
 Coeff:      0.720D+00
 Gap=     0.155 Goal=   None    Shift=    0.000
 RMSDP=1.11D-05 MaxDP=4.92D-04 DE=-5.32D-05 OVMax= 1.95D-03

 Cycle   8  Pass 0  IDiag  1:
 RMSU=  7.90D-06    CP:  8.66D-01  1.50D+00  8.20D-01  7.51D-01  9.62D-01
                    CP:  9.32D-01  1.06D+00
 E= -1108.69785164296     Delta-E=       -0.000007657945 Rises=F Damp=F
 DIIS: error= 4.90D-05 at cycle   8 NSaved=   8.
 NSaved= 8 IEnMin= 8 EnMin= -1108.69785164296     IErMin= 8 ErrMin= 4.90D-05
 ErrMax= 4.90D-05  0.00D+00 EMaxC= 1.00D-01 BMatC= 1.15D-06 BMatP= 5.20D-06
 IDIUse=1 WtCom= 1.00D+00 WtEn= 0.00D+00
 Coeff-Com:  0.492D-03-0.102D-02-0.107D-01-0.290D-01-0.332D-01 0.245D-01
 Coeff-Com:  0.371D+00 0.678D+00
 Coeff:      0.492D-03-0.102D-02-0.107D-01-0.290D-01-0.332D-01 0.245D-01
 Coeff:      0.371D+00 0.678D+00
 Gap=     0.155 Goal=   None    Shift=    0.000
 RMSDP=5.63D-06 MaxDP=1.86D-04 DE=-7.66D-06 OVMax= 7.24D-04

 Initial convergence to 1.0D-05 achieved.  Increase integral accuracy.
 Cycle   9  Pass 1  IDiag  1:
 E= -1108.69785573427     Delta-E=       -0.000004091313 Rises=F Damp=F
 DIIS: error= 1.94D-04 at cycle   1 NSaved=   1.
 NSaved= 1 IEnMin= 1 EnMin= -1108.69785573427     IErMin= 1 ErrMin= 1.94D-04
 ErrMax= 1.94D-04  0.00D+00 EMaxC= 1.00D-01 BMatC= 1.40D-05 BMatP= 1.40D-05
 IDIUse=3 WtCom= 9.98D-01 WtEn= 1.94D-03
 Coeff-Com:  0.100D+01
 Coeff-En:   0.100D+01
 Coeff:      0.100D+01
 Gap=     0.155 Goal=   None    Shift=    0.000
 RMSDP=5.63D-06 MaxDP=1.86D-04 DE=-4.09D-06 OVMax= 5.48D-04

 Cycle  10  Pass 1  IDiag  1:
 RMSU=  3.26D-04    CP:  1.00D+00
 E= -1108.69786658699     Delta-E=       -0.000010852722 Rises=F Damp=F
 DIIS: error= 2.69D-05 at cycle   2 NSaved=   2.
 NSaved= 2 IEnMin= 2 EnMin= -1108.69786658699     IErMin= 2 ErrMin= 2.69D-05
 ErrMax= 2.69D-05  0.00D+00 EMaxC= 1.00D-01 BMatC= 4.74D-07 BMatP= 1.40D-05
 IDIUse=1 WtCom= 1.00D+00 WtEn= 0.00D+00
 Coeff-Com:  0.341D-01 0.966D+00
 Coeff:      0.341D-01 0.966D+00
 Gap=     0.155 Goal=   None    Shift=    0.000
 RMSDP=8.69D-06 MaxDP=3.26D-04 DE=-1.09D-05 OVMax= 4.10D-04

 Cycle  11  Pass 1  IDiag  1:
 RMSU=  4.41D-06    CP:  1.00D+00  1.02D+00
 E= -1108.69786587293     Delta-E=        0.000000714062 Rises=F Damp=F
 DIIS: error= 5.21D-05 at cycle   3 NSaved=   3.
 NSaved= 3 IEnMin= 2 EnMin= -1108.69786658699     IErMin= 2 ErrMin= 2.69D-05
 ErrMax= 5.21D-05  0.00D+00 EMaxC= 1.00D-01 BMatC= 1.24D-06 BMatP= 4.74D-07
 IDIUse=1 WtCom= 1.00D+00 WtEn= 0.00D+00
 Coeff-Com: -0.114D-01 0.625D+00 0.387D+00
 Coeff:     -0.114D-01 0.625D+00 0.387D+00
 Gap=     0.155 Goal=   None    Shift=    0.000
 RMSDP=2.56D-06 MaxDP=1.44D-04 DE= 7.14D-07 OVMax= 2.94D-04

 Cycle  12  Pass 1  IDiag  1:
 RMSU=  1.20D-06    CP:  1.00D+00  1.02D+00  4.96D-01
 E= -1108.69786709223     Delta-E=       -0.000001219301 Rises=F Damp=F
 DIIS: error= 4.79D-06 at cycle   4 NSaved=   4.
 NSaved= 4 IEnMin= 4 EnMin= -1108.69786709223     IErMin= 4 ErrMin= 4.79D-06
 ErrMax= 4.79D-06  0.00D+00 EMaxC= 1.00D-01 BMatC= 8.09D-09 BMatP= 4.74D-07
 IDIUse=1 WtCom= 1.00D+00 WtEn= 0.00D+00
 Coeff-Com: -0.617D-02 0.297D+00 0.192D+00 0.518D+00
 Coeff:     -0.617D-02 0.297D+00 0.192D+00 0.518D+00
 Gap=     0.155 Goal=   None    Shift=    0.000
 RMSDP=2.74D-07 MaxDP=2.32D-05 DE=-1.22D-06 OVMax= 3.04D-05

 Cycle  13  Pass 1  IDiag  1:
 RMSU=  2.69D-07    CP:  1.00D+00  1.02D+00  5.03D-01  1.01D+00
 E= -1108.69786710042     Delta-E=       -0.000000008185 Rises=F Damp=F
 DIIS: error= 2.23D-06 at cycle   5 NSaved=   5.
 NSaved= 5 IEnMin= 5 EnMin= -1108.69786710042     IErMin= 5 ErrMin= 2.23D-06
 ErrMax= 2.23D-06  0.00D+00 EMaxC= 1.00D-01 BMatC= 1.34D-09 BMatP= 8.09D-09
 IDIUse=1 WtCom= 1.00D+00 WtEn= 0.00D+00
 Coeff-Com:  0.716D-04-0.208D-01-0.958D-02 0.248D+00 0.782D+00
 Coeff:      0.716D-04-0.208D-01-0.958D-02 0.248D+00 0.782D+00
 Gap=     0.155 Goal=   None    Shift=    0.000
 RMSDP=1.89D-07 MaxDP=9.19D-06 DE=-8.18D-09 OVMax= 3.97D-05

 Cycle  14  Pass 1  IDiag  1:
 RMSU=  1.56D-07    CP:  1.00D+00  1.02D+00  5.14D-01  1.08D+00  1.01D+00
 E= -1108.69786710315     Delta-E=       -0.000000002730 Rises=F Damp=F
 DIIS: error= 7.45D-07 at cycle   6 NSaved=   6.
 NSaved= 6 IEnMin= 6 EnMin= -1108.69786710315     IErMin= 6 ErrMin= 7.45D-07
 ErrMax= 7.45D-07  0.00D+00 EMaxC= 1.00D-01 BMatC= 3.69D-10 BMatP= 1.34D-09
 IDIUse=1 WtCom= 1.00D+00 WtEn= 0.00D+00
 Coeff-Com:  0.177D-02-0.946D-01-0.595D-01-0.158D-01 0.422D+00 0.746D+00
 Coeff:      0.177D-02-0.946D-01-0.595D-01-0.158D-01 0.422D+00 0.746D+00
 Gap=     0.155 Goal=   None    Shift=    0.000
 RMSDP=1.16D-07 MaxDP=3.83D-06 DE=-2.73D-09 OVMax= 2.61D-05

 Cycle  15  Pass 1  IDiag  1:
 RMSU=  7.20D-08    CP:  1.00D+00  1.02D+00  5.16D-01  1.13D+00  1.20D+00
                    CP:  1.32D+00
 E= -1108.69786710398     Delta-E=       -0.000000000832 Rises=F Damp=F
 DIIS: error= 2.41D-07 at cycle   7 NSaved=   7.
 NSaved= 7 IEnMin= 7 EnMin= -1108.69786710398     IErMin= 7 ErrMin= 2.41D-07
 ErrMax= 2.41D-07  0.00D+00 EMaxC= 1.00D-01 BMatC= 4.20D-11 BMatP= 3.69D-10
 IDIUse=1 WtCom= 1.00D+00 WtEn= 0.00D+00
 Coeff-Com:  0.836D-03-0.427D-01-0.273D-01-0.382D-01 0.112D+00 0.346D+00
 Coeff-Com:  0.649D+00
 Coeff:      0.836D-03-0.427D-01-0.273D-01-0.382D-01 0.112D+00 0.346D+00
 Coeff:      0.649D+00
 Gap=     0.155 Goal=   None    Shift=    0.000
 RMSDP=3.17D-08 MaxDP=1.03D-06 DE=-8.32D-10 OVMax= 4.57D-06

 Cycle  16  Pass 1  IDiag  1:
 RMSU=  2.01D-08    CP:  1.00D+00  1.02D+00  5.17D-01  1.13D+00  1.25D+00
                    CP:  1.44D+00  1.00D+00
 E= -1108.69786710404     Delta-E=       -0.000000000057 Rises=F Damp=F
 DIIS: error= 1.02D-07 at cycle   8 NSaved=   8.
 NSaved= 8 IEnMin= 8 EnMin= -1108.69786710404     IErMin= 8 ErrMin= 1.02D-07
 ErrMax= 1.02D-07  0.00D+00 EMaxC= 1.00D-01 BMatC= 8.51D-12 BMatP= 4.20D-11
 IDIUse=1 WtCom= 1.00D+00 WtEn= 0.00D+00
 Coeff-Com:  0.279D-05 0.932D-03 0.399D-03-0.147D-01-0.411D-01-0.497D-02
 Coeff-Com:  0.333D+00 0.726D+00
 Coeff:      0.279D-05 0.932D-03 0.399D-03-0.147D-01-0.411D-01-0.497D-02
 Coeff:      0.333D+00 0.726D+00
 Gap=     0.155 Goal=   None    Shift=    0.000
 RMSDP=1.45D-08 MaxDP=4.96D-07 DE=-5.73D-11 OVMax= 3.49D-06

 Cycle  17  Pass 1  IDiag  1:
 RMSU=  7.29D-09    CP:  1.00D+00  1.02D+00  5.16D-01  1.13D+00  1.26D+00
                    CP:  1.50D+00  1.08D+00  7.96D-01
 E= -1108.69786710404     Delta-E=       -0.000000000001 Rises=F Damp=F
 DIIS: error= 3.25D-08 at cycle   9 NSaved=   9.
 NSaved= 9 IEnMin= 9 EnMin= -1108.69786710404     IErMin= 9 ErrMin= 3.25D-08
 ErrMax= 3.25D-08  0.00D+00 EMaxC= 1.00D-01 BMatC= 1.01D-12 BMatP= 8.51D-12
 IDIUse=1 WtCom= 1.00D+00 WtEn= 0.00D+00
 Coeff-Com: -0.671D-04 0.393D-02 0.248D-02-0.409D-02-0.292D-01-0.304D-01
 Coeff-Com:  0.108D+00 0.366D+00 0.583D+00
 Coeff:     -0.671D-04 0.393D-02 0.248D-02-0.409D-02-0.292D-01-0.304D-01
 Coeff:      0.108D+00 0.366D+00 0.583D+00
 Gap=     0.155 Goal=   None    Shift=    0.000
 RMSDP=3.20D-09 MaxDP=1.94D-07 DE=-1.36D-12 OVMax= 4.42D-07

 SCF Done:  E(RM062X) =  -1108.69786710     A.U. after   17 cycles
            NFock= 17  Conv=0.32D-08     -V/T= 2.0066
 KE= 1.101445875773D+03 PE=-6.653300677886D+03 EE= 2.404493501940D+03
 Leave Link  502 at Fri Aug 15 10:58:29 2025, MaxMem=  1342177280 cpu:            1633.0 elap:             204.6
 (Enter /opt/bwhpc/common/chem/gaussian/g16.C.01/x86_64-Intel-avx2-source/g16/l801.exe)
 DoSCS=F DFT=T ScalE2(SS,OS)=  1.000000  1.000000
 Range of M.O.s used for correlation:     1   454
 NBasis=   454 NAE=    90 NBE=    90 NFC=     0 NFV=     0
 NROrb=    454 NOA=    90 NOB=    90 NVA=   364 NVB=   364

 **** Warning!!: The largest alpha MO coefficient is  0.21973369D+02

 Leave Link  801 at Fri Aug 15 10:58:29 2025, MaxMem=  1342177280 cpu:               0.2 elap:               0.0
 (Enter /opt/bwhpc/common/chem/gaussian/g16.C.01/x86_64-Intel-avx2-source/g16/l1002.exe)
 Minotr:  Closed shell wavefunction.
          Direct CPHF calculation.
          Differentiating once with respect to electric field.
                with respect to dipole field.
          Electric field/nuclear overlap derivatives assumed to be zero.
          Requested convergence is 1.0D-08 RMS, and 1.0D-07 maximum.
          Secondary convergence is 1.0D-12 RMS, and 1.0D-12 maximum.
          NewPWx=F KeepS1=T KeepF1=T KeepIn=T MapXYZ=F SortEE=F KeepMc=T.
        13435 words used for storage of precomputed grid.
 Two-electron integral symmetry used by symmetrizing perturbed Fock matrices.
          MDV=    1342177280 using IRadAn=       1.
          Solving linear equations simultaneously, MaxMat=     384.
          There are     3 degrees of freedom in the 1st order CPHF.  IDoFFX=0 NUNeed=     3.
      3 vectors produced by pass  0 Test12= 1.09D-12 3.33D-08 XBig12= 7.93D+02 2.22D+01.
 AX will form     3 AO Fock derivatives at one time.
 FoFJK:  IHMeth= 1 ICntrl=       0 DoSepK=F KAlg= 0 I1Cent=           0 FoldK=F
 IRaf= 670000000 NMat=       3 IRICut=       1 DoRegI=T DoRafI=F ISym2E=-1 IDoP0=0 IntGTp=1.
 FoFCou: FMM=F IPFlag=           0 FMFlag=      100000 FMFlg1=           0
         NFxFlg=           0 DoJE=F BraDBF=F KetDBF=F FulRan=T
         wScrn=  0.000000 ICntrl=         0 IOpCl=  0 I1Cent=           0 NGrid=           0
         NMat0=    3 NMatS0=      3 NMatT0=    0 NMatD0=    3 NMtDS0=    0 NMtDT0=    0
 Petite list used in FoFCou.
      3 vectors produced by pass  1 Test12= 1.09D-12 3.33D-08 XBig12= 1.44D+02 3.60D+00.
      3 vectors produced by pass  2 Test12= 1.09D-12 3.33D-08 XBig12= 3.58D+01 1.24D+00.
      3 vectors produced by pass  3 Test12= 1.09D-12 3.33D-08 XBig12= 1.71D+01 8.51D-01.
      3 vectors produced by pass  4 Test12= 1.09D-12 3.33D-08 XBig12= 3.17D+00 4.33D-01.
      3 vectors produced by pass  5 Test12= 1.09D-12 3.33D-08 XBig12= 6.87D-01 1.81D-01.
      3 vectors produced by pass  6 Test12= 1.09D-12 3.33D-08 XBig12= 1.79D-01 9.86D-02.
      3 vectors produced by pass  7 Test12= 1.09D-12 3.33D-08 XBig12= 5.50D-02 5.30D-02.
      3 vectors produced by pass  8 Test12= 1.09D-12 3.33D-08 XBig12= 7.61D-03 1.87D-02.
      3 vectors produced by pass  9 Test12= 1.09D-12 3.33D-08 XBig12= 1.79D-03 6.39D-03.
      3 vectors produced by pass 10 Test12= 1.09D-12 3.33D-08 XBig12= 3.54D-04 4.29D-03.
      3 vectors produced by pass 11 Test12= 1.09D-12 3.33D-08 XBig12= 6.69D-05 2.20D-03.
      3 vectors produced by pass 12 Test12= 1.09D-12 3.33D-08 XBig12= 1.66D-05 9.63D-04.
      3 vectors produced by pass 13 Test12= 1.09D-12 3.33D-08 XBig12= 3.25D-06 4.82D-04.
      3 vectors produced by pass 14 Test12= 1.09D-12 3.33D-08 XBig12= 5.85D-07 1.17D-04.
      3 vectors produced by pass 15 Test12= 1.09D-12 3.33D-08 XBig12= 8.64D-08 5.98D-05.
      3 vectors produced by pass 16 Test12= 1.09D-12 3.33D-08 XBig12= 1.57D-08 1.51D-05.
      3 vectors produced by pass 17 Test12= 1.09D-12 3.33D-08 XBig12= 1.98D-09 7.45D-06.
      3 vectors produced by pass 18 Test12= 1.09D-12 3.33D-08 XBig12= 2.63D-10 3.27D-06.
      3 vectors produced by pass 19 Test12= 1.09D-12 3.33D-08 XBig12= 3.39D-11 9.58D-07.
      2 vectors produced by pass 20 Test12= 1.09D-12 3.33D-08 XBig12= 5.10D-12 3.78D-07.
      2 vectors produced by pass 21 Test12= 1.09D-12 3.33D-08 XBig12= 5.17D-13 1.65D-07.
      1 vectors produced by pass 22 Test12= 1.09D-12 3.33D-08 XBig12= 3.99D-14 4.55D-08.
 InvSVY:  IOpt=1 It=  1 EMax= 4.44D-15
 Solved reduced A of dimension    65 with     3 vectors.
 FullF1:  Do perturbations      1 to       3.
 SCF Polarizability for W=    0.000000:
                1             2             3 
      1  0.682694D+03
      2  0.277752D+02  0.282380D+03
      3 -0.221415D+01  0.120335D+01  0.102277D+03
 Isotropic polarizability for W=    0.000000      355.78 Bohr**3.
 SCF Static Hyperpolarizability:
 K=  1 block:
                1 
      1  0.174622D+05
 K=  2 block:
                1             2 
      1 -0.121424D+04
      2 -0.982842D+01  0.134029D+03
 K=  3 block:
                1             2             3 
      1  0.851128D+02
      2  0.203832D+02  0.271460D+02
      3 -0.152029D+03  0.334643D+02  0.340282D+02
 End of Minotr F.D. properties file   721 does not exist.
 End of Minotr F.D. properties file   722 does not exist.
 End of Minotr F.D. properties file   788 does not exist.
 Leave Link 1002 at Fri Aug 15 11:02:48 2025, MaxMem=  1342177280 cpu:            2061.9 elap:             258.4
 (Enter /opt/bwhpc/common/chem/gaussian/g16.C.01/x86_64-Intel-avx2-source/g16/l601.exe)
 Copying SCF densities to generalized density rwf, IOpCl= 0 IROHF=0.

 **********************************************************************

            Population analysis using the SCF Density.

 **********************************************************************

 Orbital symmetries:
       Occupied  (A) (A) (A) (A) (A) (A) (A) (A) (A) (A) (A) (A)
                 (A) (A) (A) (A) (A) (A) (A) (A) (A) (A) (A) (A)
                 (A) (A) (A) (A) (A) (A) (A) (A) (A) (A) (A) (A)
                 (A) (A) (A) (A) (A) (A) (A) (A) (A) (A) (A) (A)
                 (A) (A) (A) (A) (A) (A) (A) (A) (A) (A) (A) (A)
                 (A) (A) (A) (A) (A) (A) (A) (A) (A) (A) (A) (A)
                 (A) (A) (A) (A) (A) (A) (A) (A) (A) (A) (A) (A)
                 (A) (A) (A) (A) (A) (A)
       Virtual   (A) (A) (A) (A) (A) (A) (A) (A) (A) (A) (A) (A)
                 (A) (A) (A) (A) (A) (A) (A) (A) (A) (A) (A) (A)
                 (A) (A) (A) (A) (A) (A) (A) (A) (A) (A) (A) (A)
                 (A) (A) (A) (A) (A) (A) (A) (A) (A) (A) (A) (A)
                 (A) (A) (A) (A) (A) (A) (A) (A) (A) (A) (A) (A)
                 (A) (A) (A) (A) (A) (A) (A) (A) (A) (A) (A) (A)
                 (A) (A) (A) (A) (A) (A) (A) (A) (A) (A) (A) (A)
                 (A) (A) (A) (A) (A) (A) (A) (A) (A) (A) (A) (A)
                 (A) (A) (A) (A) (A) (A) (A) (A) (A) (A) (A) (A)
                 (A) (A) (A) (A) (A) (A) (A) (A) (A) (A) (A) (A)
                 (A) (A) (A) (A) (A) (A) (A) (A) (A) (A) (A) (A)
                 (A) (A) (A) (A) (A) (A) (A) (A) (A) (A) (A) (A)
                 (A) (A) (A) (A) (A) (A) (A) (A) (A) (A) (A) (A)
                 (A) (A) (A) (A) (A) (A) (A) (A) (A) (A) (A) (A)
                 (A) (A) (A) (A) (A) (A) (A) (A) (A) (A) (A) (A)
                 (A) (A) (A) (A) (A) (A) (A) (A) (A) (A) (A) (A)
                 (A) (A) (A) (A) (A) (A) (A) (A) (A) (A) (A) (A)
                 (A) (A) (A) (A) (A) (A) (A) (A) (A) (A) (A) (A)
                 (A) (A) (A) (A) (A) (A) (A) (A) (A) (A) (A) (A)
                 (A) (A) (A) (A) (A) (A) (A) (A) (A) (A) (A) (A)
                 (A) (A) (A) (A) (A) (A) (A) (A) (A) (A) (A) (A)
                 (A) (A) (A) (A) (A) (A) (A) (A) (A) (A) (A) (A)
                 (A) (A) (A) (A) (A) (A) (A) (A) (A) (A) (A) (A)
                 (A) (A) (A) (A) (A) (A) (A) (A) (A) (A) (A) (A)
                 (A) (A) (A) (A) (A) (A) (A) (A) (A) (A) (A) (A)
                 (A) (A) (A) (A) (A) (A) (A) (A) (A) (A) (A) (A)
                 (A) (A) (A) (A) (A) (A) (A) (A) (A) (A) (A) (A)
                 (A) (A) (A) (A) (A) (A) (A) (A) (A) (A) (A) (A)
                 (A) (A) (A) (A) (A) (A) (A) (A) (A) (A) (A) (A)
                 (A) (A) (A) (A) (A) (A) (A) (A) (A) (A) (A) (A)
                 (A) (A) (A) (A)
 The electronic state is 1-A.
 Alpha  occ. eigenvalues --  -19.65031 -19.64928 -14.98629 -14.80152 -10.60410
 Alpha  occ. eigenvalues --  -10.60242 -10.60035 -10.59825 -10.58890 -10.58142
 Alpha  occ. eigenvalues --  -10.57834 -10.57746 -10.57492 -10.57367 -10.57063
 Alpha  occ. eigenvalues --  -10.56959 -10.56895 -10.56589 -10.56543 -10.56423
 Alpha  occ. eigenvalues --  -10.56395 -10.56359 -10.56268 -10.56119 -10.55892
 Alpha  occ. eigenvalues --  -10.54695  -1.34287  -1.15683  -1.07768  -1.00605
 Alpha  occ. eigenvalues --   -0.96973  -0.94378  -0.93582  -0.90819  -0.88552
 Alpha  occ. eigenvalues --   -0.86472  -0.84933  -0.83518  -0.83109  -0.82266
 Alpha  occ. eigenvalues --   -0.78119  -0.75873  -0.72278  -0.71079  -0.70877
 Alpha  occ. eigenvalues --   -0.69009  -0.65728  -0.65331  -0.62481  -0.61478
 Alpha  occ. eigenvalues --   -0.60475  -0.60198  -0.59733  -0.58997  -0.58206
 Alpha  occ. eigenvalues --   -0.57527  -0.56082  -0.55494  -0.55010  -0.53399
 Alpha  occ. eigenvalues --   -0.51972  -0.51133  -0.50314  -0.49362  -0.49075
 Alpha  occ. eigenvalues --   -0.48239  -0.47864  -0.47592  -0.46728  -0.46595
 Alpha  occ. eigenvalues --   -0.46137  -0.45794  -0.44956  -0.44292  -0.43819
 Alpha  occ. eigenvalues --   -0.41859  -0.41469  -0.40361  -0.39056  -0.37889
 Alpha  occ. eigenvalues --   -0.37766  -0.36910  -0.35621  -0.35548  -0.35416
 Alpha  occ. eigenvalues --   -0.32926  -0.31544  -0.28817  -0.27094  -0.22379
 Alpha virt. eigenvalues --   -0.06883  -0.02388  -0.00851   0.01627   0.03177
 Alpha virt. eigenvalues --    0.06473   0.07322   0.07895   0.09258   0.10180
 Alpha virt. eigenvalues --    0.10505   0.11642   0.12428   0.12539   0.12869
 Alpha virt. eigenvalues --    0.13779   0.14602   0.14942   0.15092   0.16103
 Alpha virt. eigenvalues --    0.16526   0.17246   0.17488   0.18190   0.19618
 Alpha virt. eigenvalues --    0.20332   0.21985   0.22268   0.24036   0.24489
 Alpha virt. eigenvalues --    0.25945   0.26069   0.27417   0.28055   0.28725
 Alpha virt. eigenvalues --    0.29256   0.29798   0.30745   0.32969   0.33283
 Alpha virt. eigenvalues --    0.33660   0.33987   0.34589   0.35951   0.36614
 Alpha virt. eigenvalues --    0.37962   0.38766   0.41998   0.42927   0.43372
 Alpha virt. eigenvalues --    0.44470   0.45720   0.46067   0.46798   0.47027
 Alpha virt. eigenvalues --    0.47881   0.48413   0.49035   0.49904   0.49936
 Alpha virt. eigenvalues --    0.50416   0.51043   0.51255   0.51388   0.51570
 Alpha virt. eigenvalues --    0.51967   0.52633   0.53214   0.53874   0.54200
 Alpha virt. eigenvalues --    0.54759   0.55061   0.55602   0.56279   0.56739
 Alpha virt. eigenvalues --    0.56907   0.57270   0.57398   0.57943   0.58241
 Alpha virt. eigenvalues --    0.58604   0.58669   0.59450   0.59921   0.60199
 Alpha virt. eigenvalues --    0.60962   0.61879   0.62589   0.62991   0.63610
 Alpha virt. eigenvalues --    0.64663   0.65183   0.65517   0.65861   0.66410
 Alpha virt. eigenvalues --    0.67330   0.67896   0.68413   0.68620   0.69545
 Alpha virt. eigenvalues --    0.70012   0.70838   0.71041   0.71765   0.71857
 Alpha virt. eigenvalues --    0.72485   0.73198   0.73612   0.73658   0.74698
 Alpha virt. eigenvalues --    0.75247   0.75658   0.76435   0.76890   0.77757
 Alpha virt. eigenvalues --    0.79044   0.80197   0.80921   0.81486   0.82945
 Alpha virt. eigenvalues --    0.83155   0.85406   0.85870   0.87861   0.88370
 Alpha virt. eigenvalues --    0.89211   0.89504   0.89789   0.90711   0.91454
 Alpha virt. eigenvalues --    0.92337   0.92735   0.93317   0.93571   0.93990
 Alpha virt. eigenvalues --    0.95333   0.95884   0.96138   0.96900   0.97498
 Alpha virt. eigenvalues --    0.97943   0.98665   0.98682   0.99253   0.99346
 Alpha virt. eigenvalues --    1.00571   1.00679   1.01038   1.01977   1.02932
 Alpha virt. eigenvalues --    1.03618   1.04572   1.05031   1.05531   1.05910
 Alpha virt. eigenvalues --    1.06970   1.07531   1.07990   1.08597   1.09429
 Alpha virt. eigenvalues --    1.10032   1.10278   1.10809   1.11627   1.12003
 Alpha virt. eigenvalues --    1.13290   1.14298   1.14394   1.16251   1.17615
 Alpha virt. eigenvalues --    1.19054   1.19476   1.19708   1.19722   1.21686
 Alpha virt. eigenvalues --    1.24518   1.26102   1.26885   1.28864   1.30383
 Alpha virt. eigenvalues --    1.34604   1.36223   1.36767   1.37301   1.38001
 Alpha virt. eigenvalues --    1.38326   1.38568   1.40275   1.40593   1.40715
 Alpha virt. eigenvalues --    1.41219   1.42085   1.42934   1.43321   1.44230
 Alpha virt. eigenvalues --    1.44527   1.45252   1.45953   1.46594   1.47214
 Alpha virt. eigenvalues --    1.47894   1.49144   1.49894   1.50780   1.51221
 Alpha virt. eigenvalues --    1.51575   1.52920   1.53341   1.54120   1.54996
 Alpha virt. eigenvalues --    1.55668   1.56114   1.57833   1.59472   1.60012
 Alpha virt. eigenvalues --    1.60268   1.60931   1.61022   1.61099   1.63087
 Alpha virt. eigenvalues --    1.63346   1.63434   1.64397   1.64865   1.65322
 Alpha virt. eigenvalues --    1.65593   1.66693   1.66829   1.67661   1.67819
 Alpha virt. eigenvalues --    1.68198   1.68571   1.68981   1.69793   1.70000
 Alpha virt. eigenvalues --    1.70340   1.70917   1.71938   1.72675   1.73098
 Alpha virt. eigenvalues --    1.73696   1.74771   1.75743   1.76638   1.76795
 Alpha virt. eigenvalues --    1.77829   1.78144   1.78316   1.79175   1.80616
 Alpha virt. eigenvalues --    1.80839   1.81763   1.82146   1.82677   1.83392
 Alpha virt. eigenvalues --    1.84007   1.84084   1.85218   1.85613   1.86382
 Alpha virt. eigenvalues --    1.86923   1.87769   1.88069   1.88354   1.89580
 Alpha virt. eigenvalues --    1.90323   1.91789   1.93049   1.93914   1.94797
 Alpha virt. eigenvalues --    1.95896   1.96422   1.97055   1.98614   1.99104
 Alpha virt. eigenvalues --    2.00531   2.01286   2.01789   2.02848   2.03530
 Alpha virt. eigenvalues --    2.04192   2.04905   2.06501   2.06810   2.08433
 Alpha virt. eigenvalues --    2.08607   2.08863   2.10145   2.11360   2.12099
 Alpha virt. eigenvalues --    2.12709   2.13680   2.14263   2.15013   2.15299
 Alpha virt. eigenvalues --    2.15676   2.17921   2.18565   2.20027   2.21071
 Alpha virt. eigenvalues --    2.22245   2.23015   2.24056   2.25130   2.26866
 Alpha virt. eigenvalues --    2.27471   2.28780   2.30005   2.31209   2.32228
 Alpha virt. eigenvalues --    2.33387   2.33646   2.36555   2.38720   2.39548
 Alpha virt. eigenvalues --    2.39797   2.40802   2.41042   2.41731   2.42338
 Alpha virt. eigenvalues --    2.43071   2.47758   2.48159   2.49765   2.50647
 Alpha virt. eigenvalues --    2.52203   2.52611   2.53898   2.54843   2.57201
 Alpha virt. eigenvalues --    2.59613   2.61243   2.63331   2.65156   2.66649
 Alpha virt. eigenvalues --    2.68468   2.69654   2.70576   2.70738   2.72448
 Alpha virt. eigenvalues --    2.73112   2.76117   2.78197   2.78771   2.80676
 Alpha virt. eigenvalues --    2.81923   2.82958   2.84363   2.85566   2.86844
 Alpha virt. eigenvalues --    2.89405   3.00155   3.04874   3.06052   3.12546
 Alpha virt. eigenvalues --    3.25967   3.28537   3.29604   3.37262   3.43893
 Alpha virt. eigenvalues --    3.47139   3.51021   3.66350   3.70376
          Condensed to atoms (all electrons):
               1          2          3          4          5          6
     1  C    5.224705   0.452551   0.030816  -0.092891  -0.001325   0.000116
     2  C    0.452551   4.944843   0.438966   0.031145   0.010667  -0.000764
     3  C    0.030816   0.438966   4.923915   0.452583  -0.130532   0.010152
     4  C   -0.092891   0.031145   0.452583   5.068994   0.419108   0.033519
     5  C   -0.001325   0.010667  -0.130532   0.419108   4.912034   0.478349
     6  C    0.000116  -0.000764   0.010152   0.033519   0.478349   4.959689
     7  C   -0.000291   0.000033  -0.000863  -0.093714   0.029467   0.411978
     8  C   -0.000006   0.000001  -0.000003  -0.001835   0.016355  -0.134293
     9  C    0.000001  -0.000000   0.000001  -0.000057   0.000027   0.017713
    10  C   -0.000004   0.000001  -0.000006  -0.000172   0.000039  -0.003530
    11  C   -0.001684  -0.000022  -0.000185   0.025245  -0.003632   0.023666
    12  C    0.016170   0.000025   0.000041  -0.003801   0.000003   0.000030
    13  C   -0.151035   0.015894  -0.003186   0.022282   0.000020  -0.000068
    14  C    0.315456  -0.018383  -0.104151  -0.079288   0.020545  -0.003572
    15  C   -0.027377  -0.096054   0.001800   0.349032  -0.006490  -0.097819
    16  C    0.025490  -0.002675   0.021244  -0.053792  -0.104514  -0.022585
    17  C    0.337838  -0.125061   0.013819  -0.001548  -0.000002   0.000001
    18  C    0.000000   0.000000  -0.000000   0.000003  -0.000169  -0.022992
    19  C   -0.035117  -0.019773   0.000030   0.000003  -0.000000  -0.000000
    20  C    0.000000  -0.000000  -0.000000   0.000002  -0.000063  -0.000251
    21  N   -0.000000   0.000000  -0.000000  -0.000000  -0.000000  -0.000009
    22  C   -0.000000  -0.000000  -0.000000  -0.000000  -0.000000   0.000000
    23  C   -0.000000   0.000000  -0.000000  -0.000000   0.000001   0.000060
    24  N    0.002922  -0.000355  -0.000007   0.000000  -0.000000  -0.000000
    25  O   -0.000078   0.000007  -0.000000  -0.000000  -0.000000  -0.000000
    26  O    0.001572   0.000029   0.000000  -0.000000  -0.000000   0.000000
    27  H   -0.028305   0.386144  -0.041598   0.009425  -0.000282   0.000006
    28  H    0.009080  -0.038950   0.386288  -0.034302  -0.017017   0.000887
    29  H   -0.000060   0.000801  -0.018061  -0.037736   0.385169  -0.034879
    30  H    0.000001   0.000007  -0.000290   0.009002  -0.050298   0.377556
    31  H    0.000000   0.000000   0.000000  -0.000001   0.000005  -0.000193
    32  H   -0.000001   0.000000  -0.000000   0.000004   0.000000   0.000034
    33  H   -0.000377   0.000004   0.000001   0.000014   0.000000   0.000005
    34  H   -0.048918  -0.001201   0.000023  -0.000061  -0.000000   0.000000
    35  H    0.022094   0.011751  -0.000006  -0.000109  -0.000000   0.000000
    36  H   -0.000000   0.000000  -0.000000  -0.000090   0.002506   0.011874
    37  H   -0.021856   0.007192   0.001072  -0.000061  -0.000000   0.000000
    38  H   -0.000000   0.000000   0.000000  -0.000000   0.000003   0.000017
    39  H   -0.000000   0.000000   0.000000  -0.000000   0.000000   0.000000
    40  H    0.000000  -0.000000  -0.000000   0.000000   0.000000  -0.000000
    41  H   -0.000000   0.000000  -0.000000  -0.000000  -0.000000  -0.000000
    42  H    0.000000   0.000000   0.000000  -0.000000   0.000000   0.000000
    43  H    0.000000  -0.000000   0.000000   0.000000   0.000001  -0.000092
    44  H   -0.000000   0.000000  -0.000000  -0.000000   0.000001   0.000095
               7          8          9         10         11         12
     1  C   -0.000291  -0.000006   0.000001  -0.000004  -0.001684   0.016170
     2  C    0.000033   0.000001  -0.000000   0.000001  -0.000022   0.000025
     3  C   -0.000863  -0.000003   0.000001  -0.000006  -0.000185   0.000041
     4  C   -0.093714  -0.001835  -0.000057  -0.000172   0.025245  -0.003801
     5  C    0.029467   0.016355   0.000027   0.000039  -0.003632   0.000003
     6  C    0.411978  -0.134293   0.017713  -0.003530   0.023666   0.000030
     7  C    5.314661   0.351438   0.007359  -0.107260  -0.084773   0.020999
     8  C    0.351438   5.076002   0.456842   0.028487  -0.090670  -0.001364
     9  C    0.007359   0.456842   4.959389   0.430316   0.027868   0.010796
    10  C   -0.107260   0.028487   0.430316   4.924355   0.462447  -0.131018
    11  C   -0.084773  -0.090670   0.027868   0.462447   5.086643   0.409989
    12  C    0.020999  -0.001364   0.010796  -0.131018   0.409989   4.900468
    13  C   -0.003326   0.000119  -0.000700   0.010230   0.029356   0.476365
    14  C    0.025234  -0.000220   0.000046  -0.001004  -0.093263   0.035056
    15  C   -0.055483   0.025258  -0.003212   0.022280  -0.057999  -0.103753
    16  C    0.298736  -0.036408  -0.102954   0.001541   0.354383  -0.005469
    17  C    0.000001   0.000000   0.000000  -0.000001  -0.000100   0.000766
    18  C   -0.071628   0.398547  -0.129848   0.013763  -0.001100  -0.000004
    19  C    0.000000   0.000000  -0.000000  -0.000000   0.000001  -0.000057
    20  C    0.013646  -0.030319  -0.016570   0.000442  -0.000015  -0.000000
    21  N   -0.000067   0.001464   0.000069  -0.000004  -0.000000  -0.000000
    22  C    0.000001   0.000034   0.000009  -0.000000   0.000000  -0.000000
    23  C   -0.000110   0.001530   0.000057  -0.000000   0.000000   0.000000
    24  N   -0.000000   0.000000  -0.000000   0.000000   0.000000  -0.000000
    25  O   -0.000000   0.000000   0.000000  -0.000000  -0.000000  -0.000000
    26  O   -0.000000   0.000000  -0.000000  -0.000000   0.000000  -0.000001
    27  H    0.000001   0.000000  -0.000000   0.000000   0.000000   0.000002
    28  H   -0.000032  -0.000001   0.000000  -0.000000   0.000003   0.000000
    29  H    0.009061  -0.000359   0.000006   0.000001   0.000015   0.000001
    30  H   -0.009375  -0.045433  -0.000935  -0.000007  -0.000076   0.000000
    31  H    0.011923  -0.033288   0.383375  -0.039107   0.008891  -0.000318
    32  H    0.000500   0.008516  -0.039571   0.382952  -0.032076  -0.017207
    33  H   -0.000145  -0.000058   0.000725  -0.017988  -0.038907   0.383176
    34  H    0.000016   0.000001   0.000006  -0.000266   0.008917  -0.046464
    35  H    0.000000  -0.000000   0.000000  -0.000001  -0.000087   0.001682
    36  H   -0.040822   0.017945   0.011361  -0.000204  -0.000009   0.000001
    37  H   -0.000000  -0.000000   0.000000   0.000000  -0.000000   0.000002
    38  H   -0.000517  -0.021421   0.008974   0.000917  -0.000058  -0.000000
    39  H   -0.000002  -0.000128   0.000058   0.000002  -0.000000  -0.000000
    40  H    0.000001   0.000019  -0.000019  -0.000000   0.000000   0.000000
    41  H   -0.000000   0.000004   0.000003   0.000000  -0.000000  -0.000000
    42  H   -0.000000  -0.000051   0.000001   0.000000  -0.000000  -0.000000
    43  H    0.000055   0.000233  -0.000044  -0.000001   0.000000   0.000000
    44  H   -0.000180   0.000998   0.000070   0.000003  -0.000000  -0.000000
              13         14         15         16         17         18
     1  C   -0.151035   0.315456  -0.027377   0.025490   0.337838   0.000000
     2  C    0.015894  -0.018383  -0.096054  -0.002675  -0.125061   0.000000
     3  C   -0.003186  -0.104151   0.001800   0.021244   0.013819  -0.000000
     4  C    0.022282  -0.079288   0.349032  -0.053792  -0.001548   0.000003
     5  C    0.000020   0.020545  -0.006490  -0.104514  -0.000002  -0.000169
     6  C   -0.000068  -0.003572  -0.097819  -0.022585   0.000001  -0.022992
     7  C   -0.003326   0.025234  -0.055483   0.298736   0.000001  -0.071628
     8  C    0.000119  -0.000220   0.025258  -0.036408   0.000000   0.398547
     9  C   -0.000700   0.000046  -0.003212  -0.102954   0.000000  -0.129848
    10  C    0.010230  -0.001004   0.022280   0.001541  -0.000001   0.013763
    11  C    0.029356  -0.093263  -0.057999   0.354383  -0.000100  -0.001100
    12  C    0.476365   0.035056  -0.103753  -0.005469   0.000766  -0.000004
    13  C    4.979940   0.426269  -0.026180  -0.094891  -0.013938   0.000001
    14  C    0.426269   5.319440   0.306313  -0.059747  -0.080826  -0.000001
    15  C   -0.026180   0.306313   5.415995   0.271132   0.019972  -0.000278
    16  C   -0.094891  -0.059747   0.271132   5.418820  -0.000255   0.022222
    17  C   -0.013938  -0.080826   0.019972  -0.000255   5.078300  -0.000000
    18  C    0.000001  -0.000001  -0.000278   0.022222  -0.000000   5.040521
    19  C    0.000390   0.014418  -0.000192  -0.000001   0.411471  -0.000000
    20  C    0.000000   0.000000  -0.000001  -0.000098   0.000000   0.565413
    21  N    0.000000  -0.000000   0.000000   0.000001   0.000000  -0.049280
    22  C    0.000000  -0.000000   0.000000  -0.000000  -0.000000   0.006346
    23  C   -0.000000   0.000000   0.000000  -0.000001  -0.000000   0.001026
    24  N   -0.000028  -0.000023   0.000001  -0.000000  -0.028592   0.000000
    25  O   -0.000000  -0.000000   0.000000   0.000000   0.011464   0.000000
    26  O   -0.000012  -0.000050   0.000000   0.000000   0.015696   0.000000
    27  H   -0.000131   0.013057  -0.000577   0.000022  -0.035789  -0.000000
    28  H    0.000032   0.000467   0.011722  -0.000326  -0.000292  -0.000000
    29  H    0.000003  -0.000168   0.012577  -0.000002  -0.000001   0.000030
    30  H    0.000000   0.000015  -0.000722   0.016199   0.000000   0.016308
    31  H    0.000007   0.000001   0.000033  -0.000106  -0.000000  -0.026499
    32  H    0.000838  -0.000028  -0.000357   0.012017   0.000000  -0.000320
    33  H   -0.031460   0.009522   0.000015   0.012352   0.000062  -0.000001
    34  H    0.382088  -0.008970   0.014926  -0.000749   0.015236   0.000000
    35  H    0.007682  -0.041593  -0.000613   0.000121   0.350252   0.000000
    36  H   -0.000000   0.000001   0.000071  -0.001370   0.000000   0.360312
    37  H    0.000016  -0.000573   0.000052   0.000000  -0.023043  -0.000000
    38  H    0.000000  -0.000000   0.000001   0.000040  -0.000000  -0.017645
    39  H    0.000000  -0.000000   0.000000   0.000000   0.000000   0.001365
    40  H   -0.000000  -0.000000  -0.000000  -0.000000  -0.000000   0.000635
    41  H    0.000000   0.000000   0.000000   0.000000   0.000000  -0.000470
    42  H    0.000000  -0.000000   0.000000   0.000000  -0.000000  -0.000071
    43  H   -0.000000  -0.000000  -0.000000   0.000001  -0.000000   0.006214
    44  H   -0.000000   0.000000   0.000000  -0.000002   0.000000   0.011111
              19         20         21         22         23         24
     1  C   -0.035117   0.000000  -0.000000  -0.000000  -0.000000   0.002922
     2  C   -0.019773  -0.000000   0.000000  -0.000000   0.000000  -0.000355
     3  C    0.000030  -0.000000  -0.000000  -0.000000  -0.000000  -0.000007
     4  C    0.000003   0.000002  -0.000000  -0.000000  -0.000000   0.000000
     5  C   -0.000000  -0.000063  -0.000000  -0.000000   0.000001  -0.000000
     6  C   -0.000000  -0.000251  -0.000009   0.000000   0.000060  -0.000000
     7  C    0.000000   0.013646  -0.000067   0.000001  -0.000110  -0.000000
     8  C    0.000000  -0.030319   0.001464   0.000034   0.001530   0.000000
     9  C   -0.000000  -0.016570   0.000069   0.000009   0.000057  -0.000000
    10  C   -0.000000   0.000442  -0.000004  -0.000000  -0.000000   0.000000
    11  C    0.000001  -0.000015  -0.000000   0.000000   0.000000   0.000000
    12  C   -0.000057  -0.000000  -0.000000  -0.000000   0.000000  -0.000000
    13  C    0.000390   0.000000   0.000000   0.000000  -0.000000  -0.000028
    14  C    0.014418   0.000000  -0.000000  -0.000000   0.000000  -0.000023
    15  C   -0.000192  -0.000001   0.000000   0.000000   0.000000   0.000001
    16  C   -0.000001  -0.000098   0.000001  -0.000000  -0.000001  -0.000000
    17  C    0.411471   0.000000   0.000000  -0.000000  -0.000000  -0.028592
    18  C   -0.000000   0.565413  -0.049280   0.006346   0.001026   0.000000
    19  C    5.165651  -0.000000   0.000000   0.000000  -0.000000   0.261496
    20  C   -0.000000   4.711232   0.425932  -0.058706  -0.074323   0.000000
    21  N    0.000000   0.425932   6.368566   0.387885   0.387238   0.000000
    22  C    0.000000  -0.058706   0.387885   4.519916  -0.055762   0.000000
    23  C   -0.000000  -0.074323   0.387238  -0.055762   4.519753   0.000000
    24  N    0.261496   0.000000   0.000000   0.000000   0.000000   5.735578
    25  O   -0.092555   0.000000   0.000000   0.000000   0.000000   0.409028
    26  O   -0.127638   0.000000   0.000000   0.000000   0.000000   0.441268
    27  H    0.008966  -0.000000  -0.000000   0.000000   0.000000   0.000057
    28  H    0.000025   0.000000  -0.000000   0.000000   0.000000  -0.000000
    29  H    0.000000  -0.000001   0.000000   0.000000   0.000000   0.000000
    30  H   -0.000000   0.002239  -0.000096  -0.000003  -0.000028   0.000000
    31  H    0.000000   0.006845  -0.000018   0.000077  -0.000008  -0.000000
    32  H    0.000000   0.000022  -0.000000  -0.000000   0.000000  -0.000000
    33  H   -0.000000   0.000000   0.000000   0.000000   0.000000  -0.000000
    34  H    0.002774  -0.000000   0.000000   0.000000  -0.000000   0.000050
    35  H   -0.053866  -0.000000  -0.000000  -0.000000   0.000000  -0.016274
    36  H    0.000000  -0.061693  -0.008870  -0.000093   0.009237   0.000000
    37  H    0.393545   0.000000   0.000000   0.000000  -0.000000  -0.026921
    38  H    0.000000   0.377094  -0.034106  -0.010669   0.006543  -0.000000
    39  H    0.000000  -0.004188  -0.021779   0.398157   0.005736   0.000000
    40  H   -0.000000   0.000399  -0.039178   0.393146  -0.001647   0.000000
    41  H    0.000000   0.003582  -0.027097   0.398619  -0.005323   0.000000
    42  H    0.000000   0.006584  -0.022599  -0.005525   0.395438   0.000000
    43  H   -0.000000  -0.002739  -0.038010  -0.000919   0.391692   0.000000
    44  H   -0.000000  -0.012709  -0.021632   0.005632   0.393214   0.000000
              25         26         27         28         29         30
     1  C   -0.000078   0.001572  -0.028305   0.009080  -0.000060   0.000001
     2  C    0.000007   0.000029   0.386144  -0.038950   0.000801   0.000007
     3  C   -0.000000   0.000000  -0.041598   0.386288  -0.018061  -0.000290
     4  C   -0.000000  -0.000000   0.009425  -0.034302  -0.037736   0.009002
     5  C   -0.000000  -0.000000  -0.000282  -0.017017   0.385169  -0.050298
     6  C   -0.000000   0.000000   0.000006   0.000887  -0.034879   0.377556
     7  C   -0.000000  -0.000000   0.000001  -0.000032   0.009061  -0.009375
     8  C    0.000000   0.000000   0.000000  -0.000001  -0.000359  -0.045433
     9  C    0.000000  -0.000000  -0.000000   0.000000   0.000006  -0.000935
    10  C   -0.000000  -0.000000   0.000000  -0.000000   0.000001  -0.000007
    11  C   -0.000000   0.000000   0.000000   0.000003   0.000015  -0.000076
    12  C   -0.000000  -0.000001   0.000002   0.000000   0.000001   0.000000
    13  C   -0.000000  -0.000012  -0.000131   0.000032   0.000003   0.000000
    14  C   -0.000000  -0.000050   0.013057   0.000467  -0.000168   0.000015
    15  C    0.000000   0.000000  -0.000577   0.011722   0.012577  -0.000722
    16  C    0.000000   0.000000   0.000022  -0.000326  -0.000002   0.016199
[...]
    37  H    0.000000   0.000000   0.000000  -0.000004   0.006811   0.000000
    38  H    0.000267   0.000061   0.000000  -0.000000   0.000000   0.008685
    39  H    0.000020   0.000000   0.000000   0.000000  -0.000000   0.000020
    40  H   -0.000012   0.000000  -0.000000  -0.000000   0.000000  -0.000040
    41  H    0.000003  -0.000000   0.000000   0.000000  -0.000000   0.000001
    42  H    0.000000   0.000000  -0.000000  -0.000000   0.000000  -0.000075
    43  H   -0.000006   0.000000  -0.000000  -0.000000   0.000000  -0.000761
    44  H    0.000031  -0.000000   0.000000   0.000000  -0.000000   0.001074
              37         38         39         40         41         42
     1  C   -0.021856  -0.000000  -0.000000   0.000000  -0.000000   0.000000
     2  C    0.007192   0.000000   0.000000  -0.000000   0.000000   0.000000
     3  C    0.001072   0.000000   0.000000  -0.000000  -0.000000   0.000000
     4  C   -0.000061  -0.000000  -0.000000   0.000000  -0.000000  -0.000000
     5  C   -0.000000   0.000003   0.000000   0.000000  -0.000000   0.000000
     6  C    0.000000   0.000017   0.000000  -0.000000  -0.000000   0.000000
     7  C   -0.000000  -0.000517  -0.000002   0.000001  -0.000000  -0.000000
     8  C   -0.000000  -0.021421  -0.000128   0.000019   0.000004  -0.000051
     9  C    0.000000   0.008974   0.000058  -0.000019   0.000003   0.000001
    10  C    0.000000   0.000917   0.000002  -0.000000   0.000000   0.000000
    11  C   -0.000000  -0.000058  -0.000000   0.000000  -0.000000  -0.000000
    12  C    0.000002  -0.000000  -0.000000   0.000000  -0.000000  -0.000000
    13  C    0.000016   0.000000   0.000000  -0.000000   0.000000   0.000000
    14  C   -0.000573  -0.000000  -0.000000  -0.000000   0.000000  -0.000000
    15  C    0.000052   0.000001   0.000000  -0.000000   0.000000   0.000000
    16  C    0.000000   0.000040   0.000000  -0.000000   0.000000   0.000000
    17  C   -0.023043  -0.000000   0.000000  -0.000000   0.000000  -0.000000
    18  C   -0.000000  -0.017645   0.001365   0.000635  -0.000470  -0.000071
    19  C    0.393545   0.000000   0.000000  -0.000000   0.000000   0.000000
    20  C    0.000000   0.377094  -0.004188   0.000399   0.003582   0.006584
    21  N    0.000000  -0.034106  -0.021779  -0.039178  -0.027097  -0.022599
    22  C    0.000000  -0.010669   0.398157   0.393146   0.398619  -0.005525
    23  C   -0.000000   0.006543   0.005736  -0.001647  -0.005323   0.395438
    24  N   -0.026921  -0.000000   0.000000   0.000000   0.000000   0.000000
    25  O    0.009128   0.000000   0.000000   0.000000   0.000000   0.000000
    26  O    0.004132   0.000000   0.000000   0.000000   0.000000   0.000000
    27  H   -0.003141   0.000000   0.000000  -0.000000  -0.000000   0.000000
    28  H    0.000073   0.000000  -0.000000   0.000000  -0.000000  -0.000000
    29  H   -0.000000   0.000000   0.000000  -0.000000   0.000000   0.000000
    30  H    0.000000  -0.000036  -0.000001   0.000004  -0.000000  -0.000001
    31  H    0.000000   0.000267   0.000020  -0.000012   0.000003   0.000000
    32  H    0.000000   0.000061   0.000000   0.000000  -0.000000   0.000000
    33  H    0.000000   0.000000   0.000000  -0.000000   0.000000  -0.000000
    34  H   -0.000004  -0.000000   0.000000  -0.000000   0.000000  -0.000000
    35  H    0.006811   0.000000  -0.000000   0.000000  -0.000000   0.000000
    36  H    0.000000   0.008685   0.000020  -0.000040   0.000001  -0.000075
    37  H    0.623580   0.000000   0.000000  -0.000000   0.000000  -0.000000
    38  H    0.000000   0.649897   0.004442  -0.000131   0.000513  -0.000303
    39  H    0.000000   0.004442   0.607474  -0.031068  -0.017156   0.000639
    40  H   -0.000000  -0.000131  -0.031068   0.662414  -0.040568  -0.002407
    41  H    0.000000   0.000513  -0.017156  -0.040568   0.629555   0.005684
    42  H   -0.000000  -0.000303   0.000639  -0.002407   0.005684   0.619571
    43  H   -0.000000  -0.000307  -0.000549   0.007176  -0.002123  -0.032014
    44  H   -0.000000  -0.000164  -0.000243  -0.000853   0.001168  -0.017435
              43         44
     1  C    0.000000  -0.000000
     2  C   -0.000000   0.000000
     3  C    0.000000  -0.000000
     4  C    0.000000  -0.000000
     5  C    0.000001   0.000001
     6  C   -0.000092   0.000095
     7  C    0.000055  -0.000180
     8  C    0.000233   0.000998
     9  C   -0.000044   0.000070
    10  C   -0.000001   0.000003
    11  C    0.000000  -0.000000
    12  C    0.000000  -0.000000
    13  C   -0.000000  -0.000000
    14  C   -0.000000   0.000000
    15  C   -0.000000   0.000000
    16  C    0.000001  -0.000002
    17  C   -0.000000   0.000000
    18  C    0.006214   0.011111
    19  C   -0.000000  -0.000000
    20  C   -0.002739  -0.012709
    21  N   -0.038010  -0.021632
    22  C   -0.000919   0.005632
    23  C    0.391692   0.393214
    24  N    0.000000   0.000000
    25  O    0.000000   0.000000
    26  O    0.000000   0.000000
    27  H   -0.000000   0.000000
    28  H    0.000000  -0.000000
    29  H   -0.000001   0.000000
    30  H    0.000445  -0.000298
    31  H   -0.000006   0.000031
    32  H    0.000000  -0.000000
    33  H   -0.000000   0.000000
    34  H   -0.000000   0.000000
    35  H    0.000000  -0.000000
    36  H   -0.000761   0.001074
    37  H   -0.000000  -0.000000
    38  H   -0.000307  -0.000164
    39  H   -0.000549  -0.000243
    40  H    0.007176  -0.000853
    41  H   -0.002123   0.001168
    42  H   -0.032014  -0.017435
    43  H    0.665869  -0.042193
    44  H   -0.042193   0.614220
 Mulliken charges:
               1
     1  C   -0.029487
     2  C    0.003177
     3  C    0.018135
     4  C   -0.020905
     5  C    0.040025
     6  C   -0.004702
     7  C   -0.026525
     8  C    0.012063
     9  C   -0.021161
    10  C    0.022799
    11  C   -0.032766
    12  C    0.053884
    13  C   -0.026575
    14  C    0.006021
    15  C    0.025928
    16  C    0.031625
    17  C    0.054570
    18  C   -0.123510
    19  C    0.070429
    20  C    0.148245
    21  N   -0.308409
    22  C    0.021854
    23  C    0.025677
    24  N    0.221799
    25  O   -0.267090
    26  O   -0.273474
    27  H   -0.000140
    28  H   -0.009066
    29  H   -0.012599
    30  H   -0.007173
    31  H   -0.010031
    32  H   -0.009389
    33  H   -0.008524
    34  H    0.004363
    35  H    0.039736
    36  H    0.001638
    37  H    0.029996
    38  H    0.027904
    39  H    0.057198
    40  H    0.052131
    41  H    0.053606
    42  H    0.052562
    43  H    0.048071
    44  H    0.068092
 Sum of Mulliken charges =  -0.00000
 Mulliken charges with hydrogens summed into heavy atoms:
               1
     1  C   -0.029487
     2  C    0.003037
     3  C    0.009069
     4  C   -0.020905
     5  C    0.027426
     6  C   -0.011875
     7  C   -0.026525
     8  C    0.012063
     9  C   -0.031192
    10  C    0.013410
    11  C   -0.032766
    12  C    0.045360
    13  C   -0.022212
    14  C    0.006021
    15  C    0.025928
    16  C    0.031625
    17  C    0.094306
    18  C   -0.121873
    19  C    0.100425
    20  C    0.176149
    21  N   -0.308409
    22  C    0.184790
    23  C    0.194402
    24  N    0.221799
    25  O   -0.267090
    26  O   -0.273474
 Electronic spatial extent (au):  <R**2>=          14891.2662
 Charge=             -0.0000 electrons
 Dipole moment (field-independent basis, Debye):
    X=            -11.5414    Y=              1.6857    Z=              0.3371  Tot=             11.6688
 Quadrupole moment (field-independent basis, Debye-Ang):
   XX=           -158.2403   YY=           -134.6494   ZZ=           -156.9828
   XY=              8.8309   XZ=             -3.4496   YZ=             -1.2362
 Traceless Quadrupole moment (field-independent basis, Debye-Ang):
   XX=             -8.2828   YY=             15.3081   ZZ=             -7.0253
   XY=              8.8309   XZ=             -3.4496   YZ=             -1.2362
 Octapole moment (field-independent basis, Debye-Ang**2):
  XXX=           -858.8522  YYY=              2.2236  ZZZ=              3.3838  XYY=            -13.3561
  XXY=             73.0804  XXZ=             17.7026  XZZ=             17.2356  YZZ=             -1.9108
  YYZ=              0.3349  XYZ=             13.3751
 Hexadecapole moment (field-independent basis, Debye-Ang**3):
 XXXX=         -18694.5568 YYYY=          -1915.7511 ZZZZ=           -236.3865 XXXY=            304.8428
 XXXZ=           -221.4406 YYYX=             42.1504 YYYZ=              7.5605 ZZZX=             -3.4652
 ZZZY=             -6.1935 XXYY=          -3143.3209 XXZZ=          -2900.7655 YYZZ=           -424.5590
 XXYZ=            -78.0337 YYXZ=              2.3660 ZZXY=            -30.2072
 N-N= 2.038663433068D+03 E-N=-6.653300674109D+03  KE= 1.101445875773D+03
  Exact polarizability:     682.694      27.775     282.380      -2.214       1.203     102.277
 Approx polarizability:     735.254      54.727     425.413       2.821       3.626     148.504
 No NMR shielding tensors so no spin-rotation constants.
 Leave Link  601 at Fri Aug 15 11:02:48 2025, MaxMem=  1342177280 cpu:               2.4 elap:               0.3
 (Enter /opt/bwhpc/common/chem/gaussian/g16.C.01/x86_64-Intel-avx2-source/g16/l9999.exe)

 ----------------------------------------------------------------------

 Electric dipole moment (input orientation):
 (Debye = 10**-18 statcoulomb cm , SI units = C m)
                  (au)            (Debye)         (10**-30 SI)
   Tot        0.459084D+01      0.116688D+02      0.389228D+02
   x          0.294187D+01      0.747749D+01      0.249422D+02
   y         -0.352415D+01     -0.895750D+01     -0.298790D+02
   z         -0.399066D-01     -0.101432D+00     -0.338342D+00

 Dipole polarizability, Alpha (input orientation).
 (esu units = cm**3 , SI units = C**2 m**2 J**-1)
 Alpha(0;0):
               (au)            (10**-24 esu)      (10**-40 SI)
   iso        0.355784D+03      0.527217D+02      0.586608D+02
   aniso      0.516836D+03      0.765872D+02      0.852147D+02
   xx         0.367321D+03      0.544314D+02      0.605631D+02
   yx        -0.166055D+03     -0.246069D+02     -0.273788D+02
   yy         0.597385D+03      0.885233D+02      0.984954D+02
   zx         0.151480D+01      0.224471D+00      0.249757D+00
   zy        -0.130904D+02     -0.193980D+01     -0.215832D+01
   zz         0.102645D+03      0.152104D+02      0.169239D+02

 First dipole hyperpolarizability, Beta (input orientation).
 ||, _|_  parallel and perpendicular components, (z) with respect to z axis,
 vector components x,y,z.  Values do not include the 1/n! factor of 1/2.
 (esu units = statvolt**-1 cm**4 , SI units = C**3 m**3 J**-2)
 Beta(0;0,0):
               (au)            (10**-30 esu)      (10**-50 SI)
   || (z)    -0.317835D+03     -0.274585D+01     -0.101909D+01
   _|_(z)    -0.105945D+03     -0.915283D+00     -0.339698D+00
   x         -0.298531D+05     -0.257908D+03     -0.957199D+02
   y          0.425446D+05      0.367552D+03      0.136413D+03
   z         -0.158918D+04     -0.137292D+02     -0.509547D+01
   ||         0.103996D+05      0.898441D+02      0.333448D+02
   xxx       -0.326383D+04     -0.281970D+02     -0.104650D+02
   xxy        0.487442D+04      0.421112D+02      0.156292D+02
   yxy       -0.678939D+04     -0.586550D+02     -0.217692D+02
   yyy        0.940780D+04      0.812760D+02      0.301648D+02
   xxz       -0.156318D+03     -0.135047D+01     -0.501212D+00
   yxz        0.202332D+03      0.174799D+01      0.648750D+00
   yyz       -0.347612D+03     -0.300310D+01     -0.111457D+01
   zxz        0.102173D+03      0.882697D+00      0.327604D+00
   zyz       -0.100706D+03     -0.870019D+00     -0.322899D+00
   zzz       -0.257948D+02     -0.222847D+00     -0.827075D-01

 ----------------------------------------------------------------------

 Dipole orientation:
     6          1.65184673          0.99301916         -7.53153725
     6          3.72350190          2.56947400         -6.93146401
     6          4.34039783          3.16320582         -4.46437635
     6          2.90118485          2.20797469         -2.43107517
     6          3.51698302          2.77627060          0.13854143
     6          2.10939637          1.84737355          2.09607809
     6         -0.06149821          0.27506917          1.68479641
     6         -1.56216078         -0.68452174          3.72769166
     6         -3.63233065         -2.25992327          3.11340274
     6         -4.21804659         -2.90159788          0.64350019
     6         -2.78811841         -1.96799735         -1.39784960
     6         -3.38079653         -2.56365049         -3.96503023
     6         -1.98882579         -1.63348878         -5.93203696
     6          0.14795059         -0.01132740         -5.51575405
     6          0.78197510          0.61273874         -2.94531613
     6         -0.68837385         -0.35435683         -0.88007585
     6          1.06695320          0.40469687        -10.15133261
     6         -0.99892169         -0.04402402          6.35133462
     6          2.29221070          1.21309788        -12.23415349
     6         -1.76251122         -1.43107994          8.38639725
     7         -1.46551517         -0.83255099         10.88510055
     6         -1.65285515         -2.79912849         12.78449908
     6         -0.20566714          1.48602951         11.60075584
     7          1.44801164          0.43472673        -14.72623598
     8          2.67232433          1.26627552        -16.51044034
     8         -0.38411022         -0.96768583        -14.92673324
     1          4.87846421          3.34139565         -8.45681691
     1          5.95949136          4.38268077         -4.06566861
     1          5.16157945          3.96890604          0.51620272
     1          2.67646716          2.30074327          4.02411940
     1         -4.85721314         -2.94318347          4.62723267
     1         -5.84581000         -4.11516661          0.25575211
     1         -4.99592852         -3.79723217         -4.34174587
     1         -2.52826225         -2.14909860         -7.85089991
     1         -0.53525298         -0.82787074        -10.55847231
     1          0.11928378          1.65238316          6.68979608
     1          3.93193114          2.44774366        -12.34545717
     1         -2.73017260         -3.23522261          8.08849457
     1         -2.88869518         -4.32500450         12.10205079
     1          0.20501568         -3.64405865         13.25992659
     1         -2.47682876         -2.03776841         14.54010684
     1         -0.49056946          1.83515061         13.62962289
     1          1.85680995          1.43168118         11.23119257
     1         -1.00147164          3.09533647         10.54632398

 Electric dipole moment (dipole orientation):
 (Debye = 10**-18 statcoulomb cm , SI units = C m)
                  (au)            (Debye)         (10**-30 SI)
   Tot        0.459084D+01      0.116688D+02      0.389228D+02
   x          0.000000D+00      0.000000D+00      0.000000D+00
   y          0.000000D+00      0.000000D+00      0.000000D+00
   z          0.459084D+01      0.116688D+02      0.389228D+02

 Dipole polarizability, Alpha (dipole orientation).
 (esu units = cm**3 , SI units = C**2 m**2 J**-1)
 Alpha(0;0):
               (au)            (10**-24 esu)      (10**-40 SI)
   iso        0.355784D+03      0.527217D+02      0.586608D+02
   aniso      0.516836D+03      0.765872D+02      0.852147D+02
   xx         0.225939D+03      0.334808D+02      0.372524D+02
   yx         0.947759D+02      0.140443D+02      0.156264D+02
   yy         0.175358D+03      0.259853D+02      0.289126D+02
   zx        -0.742619D+02     -0.110045D+02     -0.122441D+02
   zy        -0.412571D+02     -0.611367D+01     -0.680237D+01
   zz         0.666054D+03      0.986990D+02      0.109817D+03

 First dipole hyperpolarizability, Beta (dipole orientation).
 ||, _|_  parallel and perpendicular components, (z) with respect to z axis,
 vector components x,y,z.  Values do not include the 1/n! factor of 1/2.
 (esu units = statvolt**-1 cm**4 , SI units = C**3 m**3 J**-2)
 Beta(0;0,0):
               (au)            (10**-30 esu)      (10**-50 SI)
   || (z)    -0.103551D+05     -0.894603D+02     -0.332023D+02
   _|_(z)    -0.345171D+04     -0.298201D+02     -0.110674D+02
   x          0.464361D+04      0.401172D+02      0.148891D+02
   y          0.121988D+04      0.105388D+02      0.391139D+01
   z         -0.517757D+05     -0.447302D+03     -0.166012D+03
   ||         0.103996D+05      0.898441D+02      0.333448D+02
   xxx        0.106005D+03      0.915803D+00      0.339891D+00
   xxy        0.299789D+02      0.258994D+00      0.961231D-01
   yxy        0.198562D+02      0.171542D+00      0.636661D-01
   yyy       -0.321035D+00     -0.277349D-02     -0.102935D-02
   xxz       -0.678407D+01     -0.586091D-01     -0.217522D-01
   yxz       -0.476917D+02     -0.412019D+00     -0.152917D+00
   yyz        0.151665D+03      0.131026D+01      0.486291D+00
   zxz        0.142201D+04      0.122850D+02      0.455947D+01
   zyz        0.376970D+03      0.325672D+01      0.120870D+01
   zzz       -0.174034D+05     -0.150352D+03     -0.558017D+02

 ----------------------------------------------------------------------
 Unable to Open any file for archive entry.
 1\1\GINC-N1328\SP\RM062X\CC-pVDZ\C22H18N2O2\KA_PR7831\15-Aug-2025\0\\#
 P m062x/cc-pvdz polar\\p1\\0,1\C,0,-1.7811853,3.7063509,-0.122116\C,0,
 -0.5215787,4.3449124,-0.1869911\C,0,0.6621492,3.6321401,-0.1663442\C,0
 ,0.654697,2.2232393,-0.0756911\C,0,1.8661732,1.4630705,-0.0654762\C,0,
 1.8497474,0.0989033,0.0254983\C,0,0.6244893,-0.6415185,0.1248434\C,0,0
 .6000981,-2.0713886,0.2345191\C,0,-0.6635921,-2.7035593,0.2993838\C,0,
 -1.8511992,-1.9917447,0.2487012\C,0,-1.8550344,-0.5866546,0.1524468\C,
 0,-3.0657019,0.1727248,0.1232675\C,0,-3.0569958,1.5369097,0.0381457\C,
 0,-1.8275252,2.2770403,-0.0293998\C,0,-0.5954759,1.5332927,-0.0027142\
 C,0,-0.6048642,0.1006952,0.0935307\C,0,-3.0053566,4.490721,-0.1507151\
 C,0,1.8325629,-2.8518108,0.2916384\C,0,-3.1195733,5.8320434,-0.228233\
 C,0,1.9217361,-4.1766847,-0.0222395\N,0,3.0182853,-4.9852745,0.1086898
 \C,0,3.0878951,-6.2280881,-0.6353866\C,0,4.2603286,-4.4475757,0.620037
 3\N,0,-4.4307195,6.4556556,-0.2466902\O,0,-4.4378887,7.680393,-0.31585
 82\O,0,-5.4348778,5.7550285,-0.1941799\H,0,-0.4781248,5.4334912,-0.258
 0547\H,0,1.6194505,4.1570499,-0.2218409\H,0,2.8171948,1.9974668,-0.140
 427\H,0,2.7983802,-0.4381031,0.0085025\H,0,-0.7093446,-3.7867905,0.430
 2268\H,0,-2.8059205,-2.5221157,0.3094867\H,0,-4.018022,-0.3631058,0.17
 15892\H,0,-4.0102943,2.0640871,0.0204451\H,0,-3.9637207,3.9708612,-0.1
 062247\H,0,2.7394141,-2.3316051,0.600012\H,0,-2.3248411,6.5728033,-0.2
 822156\H,0,1.0470119,-4.696955,-0.4256142\H,0,2.0727142,-6.6028518,-0.
 8330141\H,0,3.6031242,-6.1146782,-1.610813\H,0,3.6277497,-6.9942322,-0
 .0547689\H,0,4.9516905,-5.2716359,0.8491366\H,0,4.7600429,-3.7675189,-
 0.0997332\H,0,4.0786872,-3.8828475,1.5484834\\Version=ES64L-G16RevC.01
 \State=1-A\HF=-1108.6978671\RMSD=3.200e-09\Dipole=2.9418707,-3.5241534
 ,-0.0399066\Polar=367.3212733,-166.0553697,597.3847962,1.5148023,-13.0
 904016,102.6449781\HyperPolar=-3263.8316193,4874.4249256,-6789.3870944
 ,9407.7975219,-156.3179822,202.3321825,-347.6124907,102.1732425,-100.7
 057612,-25.7948211\Quadrupole=0.7087025,4.659477,-5.3681795,10.7803082
 ,-0.9232094,2.3051702\PG=C01 [X(C22H18N2O2)]\\@
 The archive entry for this job was punched.


 YOU KNOW YOU'RE A TEACHER WHEN YOU SAY 2, WRITE 3, AND MEAN 4.
 -- RONALD ANSTROM, HIGH SCHOOL TEACHER, UNDERWOOD, N.D. 1974
 Job cpu time:       0 days  1 hours  2 minutes 13.4 seconds.
 Elapsed time:       0 days  0 hours  7 minutes 48.0 seconds.
 File lengths (MBytes):  RWF=    114 Int=      0 D2E=      0 Chk=     15 Scr=      1
 Normal termination of Gaussian 16 at Fri Aug 15 11:02:48 2025.
