Start Job  on nano06

                                 *****************
                                 * O   R   C   A *
                                 *****************

                                            #,                                       
                                            ###                                      
                                            ####                                     
                                            #####                                    
                                            ######                                   
                                           ########,                                 
                                     ,,################,,,,,                         
                               ,,#################################,,                 
                          ,,##########################################,,             
                       ,#########################################, ''#####,          
                    ,#############################################,,   '####,        
                  ,##################################################,,,,####,       
                ,###########''''           ''''###############################       
              ,#####''   ,,,,##########,,,,          '''####'''          '####       
            ,##' ,,,,###########################,,,                        '##       
           ' ,,###''''                  '''############,,,                           
         ,,##''                                '''############,,,,        ,,,,,,###''
      ,#''                                            '''#######################'''  
     '                                                          ''''####''''         
             ,#######,   #######,   ,#######,      ##                                
            ,#'     '#,  ##    ##  ,#'     '#,    #''#        ######   ,####,        
            ##       ##  ##   ,#'  ##            #'  '#       #        #'  '#        
            ##       ##  #######   ##           ,######,      #####,   #    #        
            '#,     ,#'  ##    ##  '#,     ,#' ,#      #,         ##   #,  ,#        
             '#######'   ##     ##  '#######'  #'      '#     #####' # '####'        



                  #######################################################
                  #                        -***-                        #
                  #          Department of theory and spectroscopy      #
                  #    Directorship and core code : Frank Neese         #
                  #        Max Planck Institute fuer Kohlenforschung    #
                  #                Kaiser Wilhelm Platz 1               #
                  #                 D-45470 Muelheim/Ruhr               #
                  #                      Germany                        #
                  #                                                     #
                  #                  All rights reserved                #
                  #                        -***-                        #
                  #######################################################


                         Program Version 5.0.4 -  RELEASE  -


 With contributions from (in alphabetic order):
   Daniel Aravena         : Magnetic Suceptibility
   Michael Atanasov       : Ab Initio Ligand Field Theory (pilot matlab implementation)
   Alexander A. Auer      : GIAO ZORA, VPT2 properties, NMR spectrum
   Ute Becker             : Parallelization
   Giovanni Bistoni       : ED, misc. LED, open-shell LED, HFLD
   Martin Brehm           : Molecular dynamics
   Dmytro Bykov           : SCF Hessian
   Vijay G. Chilkuri      : MRCI spin determinant printing, contributions to CSF-ICE
   Dipayan Datta          : RHF DLPNO-CCSD density
   Achintya Kumar Dutta   : EOM-CC, STEOM-CC
   Dmitry Ganyushin       : Spin-Orbit,Spin-Spin,Magnetic field MRCI
   Miquel Garcia          : C-PCM and meta-GGA Hessian, CC/C-PCM, Gaussian charge scheme
   Yang Guo               : DLPNO-NEVPT2, F12-NEVPT2, CIM, IAO-localization
   Andreas Hansen         : Spin unrestricted coupled pair/coupled cluster methods
   Benjamin Helmich-Paris : MC-RPA, TRAH-SCF, COSX integrals
   Lee Huntington         : MR-EOM, pCC
   Robert Izsak           : Overlap fitted RIJCOSX, COSX-SCS-MP3, EOM
   Marcus Kettner         : VPT2
   Christian Kollmar      : KDIIS, OOCD, Brueckner-CCSD(T), CCSD density, CASPT2, CASPT2-K
   Simone Kossmann        : Meta GGA functionals, TD-DFT gradient, OOMP2, MP2 Hessian
   Martin Krupicka        : Initial AUTO-CI
   Lucas Lang             : DCDCAS
   Marvin Lechner         : AUTO-CI (C++ implementation), FIC-MRCC
   Dagmar Lenk            : GEPOL surface, SMD
   Dimitrios Liakos       : Extrapolation schemes; Compound Job, initial MDCI parallelization
   Dimitrios Manganas     : Further ROCIS development; embedding schemes
   Dimitrios Pantazis     : SARC Basis sets
   Anastasios Papadopoulos: AUTO-CI, single reference methods and gradients
   Taras Petrenko         : DFT Hessian,TD-DFT gradient, ASA, ECA, R-Raman, ABS, FL, XAS/XES, NRVS
   Peter Pinski           : DLPNO-MP2, DLPNO-MP2 Gradient
   Christoph Reimann      : Effective Core Potentials
   Marius Retegan         : Local ZFS, SOC
   Christoph Riplinger    : Optimizer, TS searches, QM/MM, DLPNO-CCSD(T), (RO)-DLPNO pert. Triples
   Tobias Risthaus        : Range-separated hybrids, TD-DFT gradient, RPA, STAB
   Michael Roemelt        : Original ROCIS implementation
   Masaaki Saitow         : Open-shell DLPNO-CCSD energy and density
   Barbara Sandhoefer     : DKH picture change effects
   Avijit Sen             : IP-ROCIS
   Kantharuban Sivalingam : CASSCF convergence, NEVPT2, FIC-MRCI
   Bernardo de Souza      : ESD, SOC TD-DFT
   Georgi Stoychev        : AutoAux, RI-MP2 NMR, DLPNO-MP2 response
   Willem Van den Heuvel  : Paramagnetic NMR
   Boris Wezisla          : Elementary symmetry handling
   Frank Wennmohs         : Technical directorship


 We gratefully acknowledge several colleagues who have allowed us to
 interface, adapt or use parts of their codes:
   Stefan Grimme, W. Hujo, H. Kruse, P. Pracht,  : VdW corrections, initial TS optimization,
                  C. Bannwarth, S. Ehlert          DFT functionals, gCP, sTDA/sTD-DF
   Ed Valeev, F. Pavosevic, A. Kumar             : LibInt (2-el integral package), F12 methods
   Garnet Chan, S. Sharma, J. Yang, R. Olivares  : DMRG
   Ulf Ekstrom                                   : XCFun DFT Library
   Mihaly Kallay                                 : mrcc  (arbitrary order and MRCC methods)
   Jiri Pittner, Ondrej Demel                    : Mk-CCSD
   Frank Weinhold                                : gennbo (NPA and NBO analysis)
   Christopher J. Cramer and Donald G. Truhlar   : smd solvation model
   Lars Goerigk                                  : TD-DFT with DH, B97 family of functionals
   V. Asgeirsson, H. Jonsson                     : NEB implementation
   FAccTs GmbH                                   : IRC, NEB, NEB-TS, DLPNO-Multilevel, CI-OPT
                                                   MM, QMMM, 2- and 3-layer-ONIOM, Crystal-QMMM,
                                                   LR-CPCM, SF, NACMEs, symmetry and pop. for TD-DFT,
                                                   nearIR, NL-DFT gradient (VV10), updates on ESD,
                                                   ML-optimized integration grids
   S Lehtola, MJT Oliveira, MAL Marques          : LibXC Library
   Liviu Ungur et al                             : ANISO software


 Your calculation uses the libint2 library for the computation of 2-el integrals
 For citations please refer to: http://libint.valeyev.net

 Your ORCA version has been built with support for libXC version: 5.1.0
 For citations please refer to: https://tddft.org/programs/libxc/

 This ORCA versions uses:
   CBLAS   interface :  Fast vector & matrix operations
   LAPACKE interface :  Fast linear algebra routines
   SCALAPACK package :  Parallel linear algebra routines
   Shared memory     :  Shared parallel matrices
   BLAS/LAPACK       :  OpenBLAS 0.3.15  USE64BITINT DYNAMIC_ARCH NO_AFFINITY Zen SINGLE_THREADED
        Core in use  :  Zen
   Copyright (c) 2011-2014, The OpenBLAS Project


================================================================================

----- Orbital basis set information -----
Your calculation utilizes the basis: def2-SVP
   F. Weigend and R. Ahlrichs, Phys. Chem. Chem. Phys. 7, 3297 (2005).

----- AuxJ basis set information -----
Your calculation utilizes the auxiliary basis: def2/J
   F. Weigend, Phys. Chem. Chem. Phys. 8, 1057 (2006).

================================================================================
                                        WARNINGS
                       Please study these warnings very carefully!
================================================================================


WARNING: Geometry Optimization
  ===> : Switching off AutoStart
         For restart on a previous wavefunction, please use MOREAD

INFO   : the flag for use of the SHARK integral package has been found!

================================================================================
                                       INPUT FILE
================================================================================
NAME = pyrene_deriv_p1_reopt_freq.inp
|  1> ! B3LYP def2-SVP Opt PAL8 FREQ defgrid3 slowconv VeryTightSCF
|  2> *xyz 0 1
|  3>   C      -1.787433      3.717463     -0.063191
|  4>   C      -0.529691      4.361386     -0.025939
|  5>   C       0.655084      3.651330      0.016014
|  6>   C       0.649835      2.239631      0.022619
|  7>   C       1.862240      1.483132      0.070896
|  8>   C       1.849320      0.116175      0.075661
|  9>   C       0.627694     -0.636333      0.030067
| 10>   C       0.605150     -2.072624      0.030315
| 11>   C      -0.661685     -2.704458      0.001341
| 12>   C      -1.846991     -1.992121     -0.032743
| 13>   C      -1.852374     -0.582980     -0.041878
| 14>   C      -3.063884      0.172983     -0.082290
| 15>   C      -3.058619      1.540034     -0.090558
| 16>   C      -1.831050      2.284528     -0.057904
| 17>   C      -0.597677      1.542711     -0.015702
| 18>   C      -0.603225      0.106242     -0.009686
| 19>   C      -3.012094      4.500751     -0.106288
| 20>   C       1.839217     -2.849758      0.048881
| 21>   C      -3.126773      5.844306     -0.091090
| 22>   C       1.921282     -4.209556      0.138200
| 23>   N       3.062550     -4.959961      0.212785
| 24>   C       3.005978     -6.390811     -0.015448
| 25>   C       4.360763     -4.323826      0.147598
| 26>   N      -4.435596      6.469575     -0.140948
| 27>   O      -4.442056      7.696132     -0.113648
| 28>   O      -5.439379      5.769181     -0.205860
| 29>   H      -0.487919      5.452329     -0.032074
| 30>   H       1.611317      4.180291      0.044305
| 31>   H       2.812103      2.023459      0.107814
| 32>   H       2.803491     -0.407832      0.122319
| 33>   H      -0.718795     -3.794535     -0.002900
| 34>   H      -2.801177     -2.526251     -0.057963
| 35>   H      -4.014259     -0.367903     -0.106924
| 36>   H      -4.012560      2.065267     -0.121360
| 37>   H      -3.968808      3.978491     -0.157143
| 38>   H       2.773364     -2.295459     -0.015889
| 39>   H      -2.332424      6.585680     -0.040213
| 40>   H       1.011163     -4.814418      0.178666
| 41>   H       1.997716     -6.766436      0.212456
| 42>   H       3.242043     -6.665295     -1.063446
| 43>   H       3.720358     -6.915565      0.640423
| 44>   H       5.141993     -5.054634      0.400839
| 45>   H       4.582740     -3.913245     -0.857917
| 46>   H       4.420854     -3.494935      0.871646
| 47> *
| 48> 
| 49>                          ****END OF INPUT****
================================================================================

                       *****************************
                       * Geometry Optimization Run *
                       *****************************

Geometry optimization settings:
Update method            Update   .... BFGS
Choice of coordinates    CoordSys .... Z-matrix Internals
Initial Hessian          InHess   .... Almoef's Model

Convergence Tolerances:
Energy Change            TolE     ....  5.0000e-06 Eh
Max. Gradient            TolMAXG  ....  3.0000e-04 Eh/bohr
RMS Gradient             TolRMSG  ....  1.0000e-04 Eh/bohr
Max. Displacement        TolMAXD  ....  4.0000e-03 bohr
RMS Displacement         TolRMSD  ....  2.0000e-03 bohr
Strict Convergence                ....  False
------------------------------------------------------------------------------
                        ORCA OPTIMIZATION COORDINATE SETUP
------------------------------------------------------------------------------

The optimization will be done in new redundant internal coordinates
Making redundant internal coordinates   ...  (new redundants) done
Evaluating the initial hessian          ...  (Almloef) done
Evaluating the coordinates              ...  done
Calculating the B-matrix                .... done
Calculating the G-matrix                .... done
Diagonalizing the G-matrix              .... done
Small eigenvalue found = 2.229e-03
Small eigenvalue found = 7.078e-03
Small eigenvalue found = 8.340e-03
Small eigenvalue found = 1.944e-02
Small eigenvalue found = 2.158e-02
Small eigenvalue found = 2.609e-02
The first mode is                       ....  111
The number of degrees of freedom        ....  126

    -----------------------------------------------------------------
                    Redundant Internal Coordinates


    -----------------------------------------------------------------
         Definition                    Initial Value    Approx d2E/dq
    -----------------------------------------------------------------
      1. B(C   1,C   0)                  1.4135         0.573152   
      2. B(C   2,C   1)                  1.3819         0.643681   
      3. B(C   3,C   2)                  1.4117         0.576871   
      4. B(C   4,C   3)                  1.4299         0.539657   
      5. B(C   5,C   4)                  1.3670         0.679816   
      6. B(C   6,C   5)                  1.4355         0.528585   
      7. B(C   7,C   6)                  1.4365         0.526747   
      8. B(C   8,C   7)                  1.4160         0.567978   
      9. B(C   9,C   8)                  1.3833         0.640351   
     10. B(C  10,C   9)                  1.4092         0.582286   
     11. B(C  11,C  10)                  1.4286         0.542214   
     12. B(C  12,C  11)                  1.3671         0.679667   
     13. B(C  13,C  12)                  1.4361         0.527540   
     14. B(C  13,C   0)                  1.4336         0.532309   
     15. B(C  14,C   3)                  1.4295         0.540417   
     16. B(C  14,C  13)                  1.4399         0.520167   
     17. B(C  15,C  14)                  1.4365         0.526700   
     18. B(C  15,C  10)                  1.4270         0.545315   
     19. B(C  15,C   6)                  1.4381         0.523579   
     20. B(C  16,C   0)                  1.4544         0.493220   
     21. B(C  17,C   7)                  1.4585         0.485804   
     22. B(C  18,C  16)                  1.3485         0.727625   
     23. B(C  19,C  17)                  1.3652         0.684400   
     24. B(N  20,C  19)                  1.3679         0.606914   
     25. B(C  21,N  20)                  1.4500         0.448830   
     26. B(C  22,N  20)                  1.4472         0.453606   
     27. B(N  23,C  18)                  1.4514         0.446652   
     28. B(O  24,N  23)                  1.2269         0.912564   
     29. B(O  25,N  23)                  1.2257         0.916514   
     30. B(H  26,C   1)                  1.0918         0.357780   
     31. B(H  27,C   2)                  1.0932         0.355954   
     32. B(H  28,C   4)                  1.0934         0.355611   
     33. B(H  29,C   5)                  1.0896         0.360645   
     34. B(H  30,C   8)                  1.0916         0.358016   
     35. B(H  31,C   9)                  1.0938         0.355106   
     36. B(H  32,C  11)                  1.0938         0.355121   
     37. B(H  33,C  12)                  1.0894         0.360877   
     38. B(H  34,C  16)                  1.0912         0.358561   
     39. B(H  35,C  17)                  1.0882         0.362554   
     40. B(H  36,C  18)                  1.0878         0.363080   
     41. B(H  37,C  19)                  1.0935         0.355458   
     42. B(H  38,C  21)                  1.0998         0.347328   
     43. B(H  39,C  21)                  1.1088         0.336108   
     44. B(H  40,C  21)                  1.1027         0.343728   
     45. B(H  41,C  22)                  1.0993         0.347964   
     46. B(H  42,C  22)                  1.1086         0.336363   
     47. B(H  43,C  22)                  1.1022         0.344276   
     48. A(C   1,C   0,C  13)          118.8369         0.416483   
     49. A(C   1,C   0,C  16)          120.3117         0.410879   
     50. A(C  13,C   0,C  16)          120.8514         0.405538   
     51. A(C   0,C   1,C   2)          121.9792         0.430872   
     52. A(C   2,C   1,H  26)          118.7384         0.354768   
     53. A(C   0,C   1,H  26)          119.2823         0.347878   
     54. A(C   1,C   2,H  27)          120.1405         0.354461   
     55. A(C   1,C   2,C   3)          120.7153         0.431373   
     56. A(C   3,C   2,H  27)          119.1442         0.347958   
     57. A(C   2,C   3,C  14)          119.3827         0.418087   
     58. A(C   4,C   3,C  14)          118.8773         0.413157   
     59. A(C   2,C   3,C   4)          121.7397         0.417982   
     60. A(C   3,C   4,C   5)          121.4090         0.430439   
     61. A(C   3,C   4,H  28)          118.4429         0.344023   
     62. A(C   5,C   4,H  28)          120.1478         0.357704   
     63. A(C   6,C   5,H  29)          119.6363         0.343638   
     64. A(C   4,C   5,H  29)          118.2143         0.358560   
     65. A(C   4,C   5,C   6)          122.1482         0.428841   
     66. A(C   5,C   6,C   7)          122.5130         0.409774   
     67. A(C   7,C   6,C  15)          120.1896         0.409084   
     68. A(C   5,C   6,C  15)          117.2965         0.409337   
     69. A(C   6,C   7,C  17)          121.2981         0.403705   
     70. A(C   8,C   7,C  17)          121.2996         0.409119   
     71. A(C   6,C   7,C   8)          117.4005         0.415036   
     72. A(C   7,C   8,H  30)          119.5050         0.347386   
     73. A(C   7,C   8,C   9)          122.5031         0.429771   
     74. A(C   9,C   8,H  30)          117.9900         0.354496   
     75. A(C   8,C   9,H  31)          119.7751         0.354006   
     76. A(C  10,C   9,H  31)          119.0013         0.348366   
     77. A(C   8,C   9,C  10)          121.2230         0.431695   
     78. A(C  11,C  10,C  15)          119.1696         0.414168   
     79. A(C   9,C  10,C  15)          118.6508         0.419458   
     80. A(C   9,C  10,C  11)          122.1796         0.419032   
     81. A(C  12,C  11,H  32)          119.8482         0.357607   
     82. A(C  10,C  11,C  12)          121.7395         0.430788   
     83. A(C  10,C  11,H  32)          118.4123         0.344216   
     84. A(C  11,C  12,C  13)          121.4376         0.428672   
     85. A(C  13,C  12,H  33)          119.9480         0.343561   
     86. A(C  11,C  12,H  33)          118.6143         0.358586   
     87. A(C   0,C  13,C  12)          122.9638         0.410394   
     88. A(C  12,C  13,C  14)          117.7615         0.408720   
     89. A(C   0,C  13,C  14)          119.2746         0.409372   
     90. A(C  13,C  14,C  15)          120.7969         0.408605   
     91. A(C   3,C  14,C  15)          119.3918         0.411379   
     92. A(C   3,C  14,C  13)          119.8112         0.410470   
     93. A(C  10,C  15,C  14)          119.0946         0.412038   
     94. A(C   6,C  15,C  14)          120.8743         0.409078   
     95. A(C   6,C  15,C  10)          120.0311         0.411604   
     96. A(C  18,C  16,H  34)          113.7549         0.362380   
     97. A(C   0,C  16,H  34)          118.8098         0.339349   
     98. A(C   0,C  16,C  18)          127.4353         0.428742   
     99. A(C  19,C  17,H  35)          117.3658         0.359294   
    100. A(C   7,C  17,H  35)          117.0130         0.339118   
    101. A(C   7,C  17,C  19)          125.6210         0.422918   
    102. A(C  16,C  18,H  36)          128.1320         0.363156   
    103. A(C  16,C  18,N  23)          120.3663         0.418467   
    104. A(N  23,C  18,H  36)          111.5013         0.332467   
    105. A(C  17,C  19,N  20)          126.8792         0.437282   
    106. A(N  20,C  19,H  37)          112.8879         0.348713   
    107. A(C  17,C  19,H  37)          120.2206         0.358087   
    108. A(C  21,N  20,C  22)          117.4946         0.382935   
    109. A(C  19,N  20,C  22)          120.3213         0.403711   
    110. A(C  19,N  20,C  21)          120.0124         0.402958   
    111. A(H  39,C  21,H  40)          107.8458         0.285632   
    112. A(N  20,C  21,H  40)          110.5302         0.329732   
    113. A(H  38,C  21,H  39)          107.8480         0.286096   
    114. A(N  20,C  21,H  39)          112.6279         0.328514   
    115. A(N  20,C  21,H  38)          109.8866         0.330301   
    116. A(H  38,C  21,H  40)          107.9472         0.287099   
    117. A(H  42,C  22,H  43)          107.8418         0.285737   
    118. A(H  41,C  22,H  43)          108.0504         0.287253   
    119. A(N  20,C  22,H  43)          110.4801         0.330397   
    120. A(H  41,C  22,H  42)          108.2318         0.286212   
    121. A(N  20,C  22,H  42)          112.5378         0.329130   
    122. A(N  20,C  22,H  41)          109.5667         0.330980   
    123. A(O  24,N  23,O  25)          124.6206         0.486943   
    124. A(C  18,N  23,O  25)          119.6141         0.430389   
    125. A(C  18,N  23,O  24)          115.7653         0.430056   
    126. D(C   2,C   1,C   0,C  13)     -0.0353         0.022545   
    127. D(H  26,C   1,C   0,C  16)     -0.1321         0.022545   
    128. D(C   2,C   1,C   0,C  16)    179.9760         0.022545   
    129. D(H  26,C   1,C   0,C  13)    179.8566         0.022545   
    130. D(C   3,C   2,C   1,C   0)      0.0275         0.028809   
    131. D(C   3,C   2,C   1,H  26)   -179.8649         0.028809   
    132. D(H  27,C   2,C   1,H  26)      0.1181         0.028809   
    133. D(H  27,C   2,C   1,C   0)   -179.9894         0.028809   
    134. D(C  14,C   3,C   2,H  27)   -179.9336         0.022852   
    135. D(C   4,C   3,C   2,C   1)   -179.7550         0.022852   
    136. D(C   4,C   3,C   2,H  27)      0.2618         0.022852   
    137. D(C  14,C   3,C   2,C   1)      0.0497         0.022852   
    138. D(H  28,C   4,C   3,C   2)      0.2711         0.019899   
    139. D(C   5,C   4,C   3,C   2)   -179.9341         0.019899   
    140. D(C   5,C   4,C   3,C  14)      0.2602         0.019899   
    141. D(H  28,C   4,C   3,C  14)   -179.5346         0.019899   
    142. D(H  29,C   5,C   4,H  28)      0.3243         0.032394   
    143. D(C   6,C   5,C   4,C   3)      0.1303         0.032394   
    144. D(C   6,C   5,C   4,H  28)    179.9217         0.032394   
    145. D(H  29,C   5,C   4,C   3)   -179.4670         0.032394   
    146. D(C  15,C   6,C   5,H  29)    179.0549         0.019069   
    147. D(C  15,C   6,C   5,C   4)     -0.5368         0.019069   
    148. D(C   7,C   6,C   5,H  29)     -0.6163         0.019069   
    149. D(C   7,C   6,C   5,C   4)    179.7919         0.019069   
    150. D(C  17,C   7,C   6,C  15)    179.0207         0.018933   
    151. D(C  17,C   7,C   6,C   5)     -1.3173         0.018933   
    152. D(C   8,C   7,C   6,C   5)    179.1610         0.018933   
    153. D(C   8,C   7,C   6,C  15)     -0.5011         0.018933   
    154. D(H  30,C   8,C   7,C   6)    179.7887         0.022123   
    155. D(C   9,C   8,C   7,C  17)   -179.2136         0.022123   
    156. D(C   9,C   8,C   7,C   6)      0.3082         0.022123   
    157. D(H  30,C   8,C   7,C  17)      0.2670         0.022123   
    158. D(H  31,C   9,C   8,H  30)      0.2882         0.028492   
    159. D(H  31,C   9,C   8,C   7)    179.7763         0.028492   
    160. D(C  10,C   9,C   8,H  30)   -179.4188         0.028492   
    161. D(C  10,C   9,C   8,C   7)      0.0693         0.028492   
    162. D(C  15,C  10,C   9,H  31)   -179.9594         0.023303   
    163. D(C  15,C  10,C   9,C   8)     -0.2502         0.023303   
    164. D(C  11,C  10,C   9,H  31)      0.0351         0.023303   
    165. D(C  11,C  10,C   9,C   8)    179.7444         0.023303   
    166. D(H  32,C  11,C  10,C  15)    179.9852         0.020093   
    167. D(H  32,C  11,C  10,C   9)     -0.0093         0.020093   
    168. D(C  12,C  11,C  10,C  15)     -0.0196         0.020093   
    169. D(C  12,C  11,C  10,C   9)    179.9859         0.020093   
    170. D(H  33,C  12,C  11,H  32)      0.0303         0.032379   
    171. D(H  33,C  12,C  11,C  10)   -179.9649         0.032379   
    172. D(C  13,C  12,C  11,H  32)    179.9478         0.032379   
    173. D(C  13,C  12,C  11,C  10)     -0.0474         0.032379   
    174. D(C  14,C  13,C  12,H  33)    179.9070         0.018992   
    175. D(C   0,C  13,C  12,H  33)      0.0223         0.018992   
    176. D(C   0,C  13,C  12,C  11)   -179.8941         0.018992   
    177. D(C  14,C  13,C   0,C  16)    179.9552         0.019345   
    178. D(C  12,C  13,C   0,C  16)     -0.1617         0.019345   
    179. D(C  14,C  13,C  12,C  11)     -0.0094         0.018992   
    180. D(C  14,C  13,C   0,C   1)     -0.0334         0.019345   
    181. D(C  12,C  13,C   0,C   1)    179.8497         0.019345   
    182. D(C   3,C  14,C  13,C  12)   -179.7802         0.018453   
    183. D(C   3,C  14,C  13,C   0)      0.1089         0.018453   
    184. D(C  15,C  14,C   3,C   4)     -0.2216         0.019956   
    185. D(C  15,C  14,C   3,C   2)    179.9681         0.019956   
    186. D(C  13,C  14,C   3,C   4)    179.6931         0.019956   
    187. D(C  15,C  14,C  13,C   0)   -179.9776         0.018453   
    188. D(C  13,C  14,C   3,C   2)     -0.1172         0.019956   
    189. D(C  15,C  14,C  13,C  12)      0.1333         0.018453   
    190. D(C  10,C  15,C  14,C  13)     -0.1994         0.018930   
    191. D(C   6,C  15,C  14,C  13)    179.8898         0.018930   
    192. D(C   6,C  15,C  14,C   3)     -0.1963         0.018930   
    193. D(C  14,C  15,C  10,C  11)      0.1409         0.020331   
    194. D(C  14,C  15,C  10,C   9)   -179.8644         0.020331   
    195. D(C   6,C  15,C  10,C  11)   -179.9475         0.020331   
    196. D(C   6,C  15,C  10,C   9)      0.0472         0.020331   
    197. D(C  14,C  15,C   6,C   7)   -179.7573         0.018701   
    198. D(C  14,C  15,C   6,C   5)      0.5634         0.018701   
    199. D(C  10,C  15,C  14,C   3)    179.7145         0.018930   
    200. D(C  10,C  15,C   6,C   7)      0.3327         0.018701   
    201. D(C  10,C  15,C   6,C   5)   -179.3466         0.018701   
    202. D(H  34,C  16,C   0,C  13)     -1.3468         0.016566   
    203. D(H  34,C  16,C   0,C   1)    178.6417         0.016566   
    204. D(C  18,C  16,C   0,C  13)    178.6540         0.016566   
    205. D(C  18,C  16,C   0,C   1)     -1.3575         0.016566   
    206. D(H  35,C  17,C   7,C   8)    174.8672         0.016069   
    207. D(H  35,C  17,C   7,C   6)     -4.6359         0.016069   
    208. D(C  19,C  17,C   7,C   8)     -5.0215         0.016069   
    209. D(C  19,C  17,C   7,C   6)    175.4754         0.016069   
    210. D(H  36,C  18,C  16,H  34)    179.7330         0.037543   
    211. D(H  36,C  18,C  16,C   0)     -0.2678         0.037543   
    212. D(N  23,C  18,C  16,H  34)     -0.0263         0.037543   
    213. D(N  23,C  18,C  16,C   0)    179.9730         0.037543   
    214. D(H  37,C  19,C  17,H  35)   -178.3664         0.032868   
    215. D(H  37,C  19,C  17,C   7)      1.5220         0.032868   
    216. D(N  20,C  19,C  17,H  35)      2.9999         0.032868   
    217. D(N  20,C  19,C  17,C   7)   -177.1117         0.032868   
    218. D(C  22,N  20,C  19,H  37)    178.7982         0.029730   
    219. D(C  22,N  20,C  19,C  17)     -2.4832         0.029730   
    220. D(C  21,N  20,C  19,H  37)     15.9605         0.029730   
    221. D(C  21,N  20,C  19,C  17)   -165.3209         0.029730   
    222. D(H  40,C  21,N  20,C  22)     52.3783         0.017184   
    223. D(H  40,C  21,N  20,C  19)   -144.3089         0.017184   
    224. D(H  39,C  21,N  20,C  22)    -68.3275         0.017184   
    225. D(H  39,C  21,N  20,C  19)     94.9853         0.017184   
    226. D(H  38,C  21,N  20,C  22)    171.4148         0.017184   
    227. D(H  38,C  21,N  20,C  19)    -25.2724         0.017184   
    228. D(H  43,C  22,N  20,C  21)   -145.6477         0.017556   
    229. D(H  43,C  22,N  20,C  19)     51.0934         0.017556   
    230. D(H  42,C  22,N  20,C  21)     93.7484         0.017556   
    231. D(H  42,C  22,N  20,C  19)    -69.5104         0.017556   
    232. D(H  41,C  22,N  20,C  21)    -26.7151         0.017556   
    233. D(H  41,C  22,N  20,C  19)    170.0260         0.017556   
    234. D(O  25,N  23,C  18,H  36)    179.7331         0.015711   
    235. D(O  25,N  23,C  18,C  16)     -0.4705         0.015711   
    236. D(O  24,N  23,C  18,H  36)     -0.2611         0.015711   
    237. D(O  24,N  23,C  18,C  16)    179.5353         0.015711   
    -----------------------------------------------------------------

Number of atoms                         .... 44
Number of degrees of freedom            .... 237

         *************************************************************
         *                GEOMETRY OPTIMIZATION CYCLE   1            *
         *************************************************************
---------------------------------
CARTESIAN COORDINATES (ANGSTROEM)
---------------------------------
  C     -1.787433    3.717463   -0.063191
  C     -0.529691    4.361386   -0.025939
  C      0.655084    3.651330    0.016014
  C      0.649835    2.239631    0.022619
  C      1.862240    1.483132    0.070896
  C      1.849320    0.116175    0.075661
  C      0.627694   -0.636333    0.030067
  C      0.605150   -2.072624    0.030315
  C     -0.661685   -2.704458    0.001341
  C     -1.846991   -1.992121   -0.032743
  C     -1.852374   -0.582980   -0.041878
  C     -3.063884    0.172983   -0.082290
  C     -3.058619    1.540034   -0.090558
  C     -1.831050    2.284528   -0.057904
  C     -0.597677    1.542711   -0.015702
  C     -0.603225    0.106242   -0.009686
  C     -3.012094    4.500751   -0.106288
  C      1.839217   -2.849758    0.048881
  C     -3.126773    5.844306   -0.091090
  C      1.921282   -4.209556    0.138200
  N      3.062550   -4.959961    0.212785
  C      3.005978   -6.390811   -0.015448
  C      4.360763   -4.323826    0.147598
  N     -4.435596    6.469575   -0.140948
  O     -4.442056    7.696132   -0.113648
  O     -5.439379    5.769181   -0.205860
  H     -0.487919    5.452329   -0.032074
  H      1.611317    4.180291    0.044305
  H      2.812103    2.023459    0.107814
  H      2.803491   -0.407832    0.122319
  H     -0.718795   -3.794535   -0.002900
  H     -2.801177   -2.526251   -0.057963
  H     -4.014259   -0.367903   -0.106924
  H     -4.012560    2.065267   -0.121360
  H     -3.968808    3.978491   -0.157143
  H      2.773364   -2.295459   -0.015889
  H     -2.332424    6.585680   -0.040213
  H      1.011163   -4.814418    0.178666
  H      1.997716   -6.766436    0.212456
  H      3.242043   -6.665295   -1.063446
  H      3.720358   -6.915565    0.640423
  H      5.141993   -5.054634    0.400839
  H      4.582740   -3.913245   -0.857917
  H      4.420854   -3.494935    0.871646

----------------------------
CARTESIAN COORDINATES (A.U.)
----------------------------
  NO LB      ZA    FRAG     MASS         X           Y           Z
   0 C     6.0000    0    12.011   -3.377759    7.024987   -0.119414
   1 C     6.0000    0    12.011   -1.000971    8.241825   -0.049018
   2 C     6.0000    0    12.011    1.237929    6.900014    0.030262
   3 C     6.0000    0    12.011    1.228010    4.232289    0.042744
   4 C     6.0000    0    12.011    3.519124    2.802713    0.133974
   5 C     6.0000    0    12.011    3.494708    0.219539    0.142979
   6 C     6.0000    0    12.011    1.186170   -1.202495    0.056818
   7 C     6.0000    0    12.011    1.143568   -3.916692    0.057287
   8 C     6.0000    0    12.011   -1.250403   -5.110685    0.002534
   9 C     6.0000    0    12.011   -3.490307   -3.764563   -0.061875
  10 C     6.0000    0    12.011   -3.500480   -1.101673   -0.079138
  11 C     6.0000    0    12.011   -5.789902    0.326890   -0.155506
  12 C     6.0000    0    12.011   -5.779952    2.910242   -0.171130
  13 C     6.0000    0    12.011   -3.460183    4.317132   -0.109423
  14 C     6.0000    0    12.011   -1.129446    2.915301   -0.029672
  15 C     6.0000    0    12.011   -1.139930    0.200768   -0.018304
  16 C     6.0000    0    12.011   -5.692033    8.505187   -0.200855
  17 C     6.0000    0    12.011    3.475616   -5.385262    0.092372
  18 C     6.0000    0    12.011   -5.908745   11.044138   -0.172135
  19 C     6.0000    0    12.011    3.630697   -7.954908    0.261160
  20 N     7.0000    0    14.007    5.787381   -9.372968    0.402105
  21 C     6.0000    0    12.011    5.680475  -12.076883   -0.029192
  22 C     6.0000    0    12.011    8.240648   -8.170847    0.278920
  23 N     7.0000    0    14.007   -8.382062   12.225725   -0.266353
  24 O     8.0000    0    15.999   -8.394269   14.543582   -0.214764
  25 O     8.0000    0    15.999  -10.278937   10.902172   -0.389019
  26 H     1.0000    0     1.008   -0.922033   10.303409   -0.060611
  27 H     1.0000    0     1.008    3.044948    7.899605    0.083724
  28 H     1.0000    0     1.008    5.314105    3.823783    0.203739
  29 H     1.0000    0     1.008    5.297830   -0.770691    0.231149
  30 H     1.0000    0     1.008   -1.358326   -7.170632   -0.005480
  31 H     1.0000    0     1.008   -5.293457   -4.773923   -0.109534
  32 H     1.0000    0     1.008   -7.585850   -0.695236   -0.202057
  33 H     1.0000    0     1.008   -7.582639    3.902789   -0.229337
  34 H     1.0000    0     1.008   -7.499960    7.518258   -0.296957
  35 H     1.0000    0     1.008    5.240898   -4.337789   -0.030026
  36 H     1.0000    0     1.008   -4.407643   12.445132   -0.075992
  37 H     1.0000    0     1.008    1.910821   -9.097932    0.337630
  38 H     1.0000    0     1.008    3.775136  -12.786711    0.401484
  39 H     1.0000    0     1.008    6.126573  -12.595582   -2.009622
  40 H     1.0000    0     1.008    7.030458  -13.068524    1.210224
  41 H     1.0000    0     1.008    9.716959   -9.551874    0.757476
  42 H     1.0000    0     1.008    8.660124   -7.394961   -1.621228
  43 H     1.0000    0     1.008    8.354203   -6.604470    1.647172

--------------------------------
INTERNAL COORDINATES (ANGSTROEM)
--------------------------------
 C      0   0   0     0.000000000000     0.00000000     0.00000000
 C      1   0   0     1.413484870806     0.00000000     0.00000000
 C      2   1   0     1.381894126903   121.97920088     0.00000000
 C      3   2   1     1.411724209832   120.71534354     0.02751761
 C      4   3   2     1.429876669421   121.73974910   180.24497936
 C      5   4   3     1.367026360929   121.40895435   180.06586505
 C      6   5   4     1.435519831551   122.14823541     0.13029183
 C      7   6   5     1.436467935640   122.51303668   179.79192121
 C      8   7   6     1.415953605687   117.40051957   179.16097865
 C      9   8   7     1.383306196856   122.50307289     0.30815648
 C     10   9   8     1.409180890729   121.22303391     0.06928125
 C     11  10   9     1.428590097688   122.17960792   179.74436999
 C     12  11  10     1.367086140903   121.73953660   179.98591141
 C      1   2   3     1.433608422577   118.83691678   359.96474620
 C      4   3   2     1.429493678050   119.38265191     0.04965327
 C     11  10   9     1.427037670964   118.65080939   359.74983226
 C      1   2   3     1.454369969187   120.31172904   179.97603392
 C      8   7   6     1.458493507288   121.29810221   358.68274472
 C     17   1   2     1.348525969446   127.43527858   358.64251516
 C     18   8   7     1.365197109867   125.62102792   175.47539004
 N     20  18   8     1.367904687496   126.87923750   182.88826446
 C     21  20  18     1.450042211790   120.01236376   194.67906697
 C     21  20  18     1.447160694796   120.32133502   357.51678648
 N     19  17   1     1.451366524298   120.36633740   179.97297071
 O     24  19  17     1.226877783583   115.76526527   179.53533164
 O     24  19  17     1.225702098419   119.61413547   359.52952051
 H      2   1   3     1.091759665612   119.28233770   179.89188980
 H      3   2   1     1.093152171699   120.14049407   180.01057011
 H      5   4   3     1.093414799800   118.44292950     0.27105044
 H      6   5   4     1.089588271896   118.21427584   180.53298678
 H      9   8   7     1.091580232557   119.50495790   179.78874816
 H     10   9   8     1.093801548681   119.77507643   179.77628654
 H     12  11  10     1.093790263066   118.41228197     0.00000000
 H     13  12  11     1.089413557367   118.61428855   180.03514878
 H     17   1   2     1.091166081044   118.80983150   178.64170497
 H     18   8   7     1.088151254151   117.01304778   355.36413200
 H     19  17   1     1.087756503454   128.13200754   359.73217878
 H     20  18   8     1.093531952145   120.22059939     1.52200228
 H     22  21  20     1.099830275308   109.88662002   334.72755575
 H     22  21  20     1.108768667705   112.62792363    94.98534262
 H     22  21  20     1.102666002721   110.53015243   215.69106105
 H     23  21  20     1.099332365504   109.56670239   170.02598057
 H     23  21  20     1.108562565359   112.53781296   290.48956107
 H     23  21  20     1.102232609056   110.48007876    51.09338302

---------------------------
INTERNAL COORDINATES (A.U.)
---------------------------
 C      0   0   0     0.000000000000     0.00000000     0.00000000
 C      1   0   0     2.671099300264     0.00000000     0.00000000
 C      2   1   0     2.611401445922   121.97920088     0.00000000
 C      3   2   1     2.667772133210   120.71534354     0.02751761
 C      4   3   2     2.702075310489   121.73974910   180.24497936
 C      5   4   3     2.583305440006   121.40895435   180.06586505
 C      6   5   4     2.712739341444   122.14823541     0.13029183
 C      7   6   5     2.714530998518   122.51303668   179.79192121
 C      8   7   6     2.675764533086   117.40051957   179.16097865
 C      9   8   7     2.614069871415   122.50307289     0.30815648
 C     10   9   8     2.662965956632   121.22303391     0.06928125
 C     11  10   9     2.699644042263   122.17960792   179.74436999
 C     12  11  10     2.583418407787   121.73953660   179.98591141
 C      1   2   3     2.709127301953   118.83691678   359.96474620
 C      4   3   2     2.701351561686   119.38265191     0.04965327
 C     11  10   9     2.696710380910   118.65080939   359.74983226
 C      1   2   3     2.748360939164   120.31172904   179.97603392
 C      8   7   6     2.756153296876   121.29810221   358.68274472
 C     17   1   2     2.548344766733   127.43527858   358.64251516
 C     18   8   7     2.579848656470   125.62102792   175.47539004
 N     20  18   8     2.584965236675   126.87923750   182.88826446
 C     21  20  18     2.740182662909   120.01236376   194.67906697
 C     21  20  18     2.734737384940   120.32133502   357.51678648
 N     19  17   1     2.742685250865   120.36633740   179.97297071
 O     24  19  17     2.318463010764   115.76526527   179.53533164
 O     24  19  17     2.316241287785   119.61413547   359.52952051
 H      2   1   3     2.063126772069   119.28233770   179.89188980
 H      3   2   1     2.065758227213   120.14049407   180.01057011
 H      5   4   3     2.066254522399   118.44292950     0.27105044
 H      6   5   4     2.059023432617   118.21427584   180.53298678
 H      9   8   7     2.062787692735   119.50495790   179.78874816
 H     10   9   8     2.066985371865   119.77507643   179.77628654
 H     12  11  10     2.066964045144   118.41228197     0.00000000
 H     13  12  11     2.058693270004   118.61428855   180.03514878
 H     17   1   2     2.062005059797   118.80983150   178.64170497
 H     18   8   7     2.056307862628   117.01304778   355.36413200
 H     19  17   1     2.055561891919   128.13200754   359.73217878
 H     20  18   8     2.066475908245   120.22059939     1.52200228
 H     22  21  20     2.078378014128   109.88662002   334.72755575
 H     22  21  20     2.095269127836   112.62792363    94.98534262
 H     22  21  20     2.083736762329   110.53015243   215.69106105
 H     23  21  20     2.077437100959   109.56670239   170.02598057
 H     23  21  20     2.094879650845   112.53781296   290.48956107
 H     23  21  20     2.082917766993   110.48007876    51.09338302

---------------------
BASIS SET INFORMATION
---------------------
There are 4 groups of distinct atoms

 Group   1 Type C   : 7s4p1d contracted to 3s2p1d pattern {511/31/1}
 Group   2 Type N   : 7s4p1d contracted to 3s2p1d pattern {511/31/1}
 Group   3 Type O   : 7s4p1d contracted to 3s2p1d pattern {511/31/1}
 Group   4 Type H   : 4s1p contracted to 2s1p pattern {31/1}

Atom   0C    basis set group =>   1
Atom   1C    basis set group =>   1
Atom   2C    basis set group =>   1
Atom   3C    basis set group =>   1
Atom   4C    basis set group =>   1
Atom   5C    basis set group =>   1
Atom   6C    basis set group =>   1
Atom   7C    basis set group =>   1
Atom   8C    basis set group =>   1
Atom   9C    basis set group =>   1
Atom  10C    basis set group =>   1
Atom  11C    basis set group =>   1
Atom  12C    basis set group =>   1
Atom  13C    basis set group =>   1
Atom  14C    basis set group =>   1
Atom  15C    basis set group =>   1
Atom  16C    basis set group =>   1
Atom  17C    basis set group =>   1
Atom  18C    basis set group =>   1
Atom  19C    basis set group =>   1
Atom  20N    basis set group =>   2
Atom  21C    basis set group =>   1
Atom  22C    basis set group =>   1
Atom  23N    basis set group =>   2
Atom  24O    basis set group =>   3
Atom  25O    basis set group =>   3
Atom  26H    basis set group =>   4
Atom  27H    basis set group =>   4
Atom  28H    basis set group =>   4
Atom  29H    basis set group =>   4
Atom  30H    basis set group =>   4
Atom  31H    basis set group =>   4
Atom  32H    basis set group =>   4
Atom  33H    basis set group =>   4
Atom  34H    basis set group =>   4
Atom  35H    basis set group =>   4
Atom  36H    basis set group =>   4
Atom  37H    basis set group =>   4
Atom  38H    basis set group =>   4
Atom  39H    basis set group =>   4
Atom  40H    basis set group =>   4
Atom  41H    basis set group =>   4
Atom  42H    basis set group =>   4
Atom  43H    basis set group =>   4
---------------------------------
AUXILIARY/J BASIS SET INFORMATION
---------------------------------
There are 4 groups of distinct atoms

 Group   1 Type C   : 12s5p4d2f1g contracted to 6s4p3d1f1g pattern {711111/2111/211/2/1}
 Group   2 Type N   : 12s5p4d2f1g contracted to 6s4p3d1f1g pattern {711111/2111/211/2/1}
 Group   3 Type O   : 12s5p4d2f1g contracted to 6s4p3d1f1g pattern {711111/2111/211/2/1}
 Group   4 Type H   : 5s2p1d contracted to 3s1p1d pattern {311/2/1}

Atom   0C    basis set group =>   1
Atom   1C    basis set group =>   1
Atom   2C    basis set group =>   1
Atom   3C    basis set group =>   1
Atom   4C    basis set group =>   1
Atom   5C    basis set group =>   1
Atom   6C    basis set group =>   1
Atom   7C    basis set group =>   1
Atom   8C    basis set group =>   1
Atom   9C    basis set group =>   1
Atom  10C    basis set group =>   1
Atom  11C    basis set group =>   1
Atom  12C    basis set group =>   1
Atom  13C    basis set group =>   1
Atom  14C    basis set group =>   1
Atom  15C    basis set group =>   1
Atom  16C    basis set group =>   1
Atom  17C    basis set group =>   1
Atom  18C    basis set group =>   1
Atom  19C    basis set group =>   1
Atom  20N    basis set group =>   2
Atom  21C    basis set group =>   1
Atom  22C    basis set group =>   1
Atom  23N    basis set group =>   2
Atom  24O    basis set group =>   3
Atom  25O    basis set group =>   3
Atom  26H    basis set group =>   4
Atom  27H    basis set group =>   4
Atom  28H    basis set group =>   4
Atom  29H    basis set group =>   4
Atom  30H    basis set group =>   4
Atom  31H    basis set group =>   4
Atom  32H    basis set group =>   4
Atom  33H    basis set group =>   4
Atom  34H    basis set group =>   4
Atom  35H    basis set group =>   4
Atom  36H    basis set group =>   4
Atom  37H    basis set group =>   4
Atom  38H    basis set group =>   4
Atom  39H    basis set group =>   4
Atom  40H    basis set group =>   4
Atom  41H    basis set group =>   4
Atom  42H    basis set group =>   4
Atom  43H    basis set group =>   4


           ************************************************************
           *        Program running with 8 parallel MPI-processes     *
           *              working on a common directory               *
           ************************************************************
------------------------------------------------------------------------------
                           ORCA GTO INTEGRAL CALCULATION
                           -- RI-GTO INTEGRALS CHOSEN --
------------------------------------------------------------------------------
------------------------------------------------------------------------------
                   ___                                                        
                  /   \      - P O W E R E D   B Y -                         
                 /     \                                                     
                 |  |  |   _    _      __       _____    __    __             
                 |  |  |  | |  | |    /  \     |  _  \  |  |  /  |          
                  \  \/   | |  | |   /    \    | | | |  |  | /  /          
                 / \  \   | |__| |  /  /\  \   | |_| |  |  |/  /          
                |  |  |   |  __  | /  /__\  \  |    /   |      \           
                |  |  |   | |  | | |   __   |  |    \   |  |\   \          
                \     /   | |  | | |  |  |  |  | |\  \  |  | \   \       
                 \___/    |_|  |_| |__|  |__|  |_| \__\ |__|  \__/        
                                                                              
                      - O R C A' S   B I G   F R I E N D -                    
                                      &                                       
                       - I N T E G R A L  F E E D E R -                       
                                                                              
 v1 FN, 2020, v2 2021                                                         
------------------------------------------------------------------------------


Reading SHARK input file pyrene_deriv_p1_reopt_freq.SHARKINP.tmp ... ok
----------------------
SHARK INTEGRAL PACKAGE
----------------------

Number of atoms                             ...     44
Number of basis functions                   ...    454
Number of shells                            ...    210
Maximum angular momentum                    ...      2
Integral batch strategy                     ... SHARK/LIBINT Hybrid
RI-J (if used) integral strategy            ... SPLIT-RIJ (Revised 2003 algorithm where possible)
Printlevel                                  ...      1
Contraction scheme used                     ... SEGMENTED contraction
Coulomb Range Separation                    ... NOT USED
Exchange Range Separation                   ... NOT USED
Finite Nucleus Model                        ... NOT USED
Auxiliary Coulomb fitting basis             ... AVAILABLE
   # of basis functions in Aux-J            ...   1472
   # of shells in Aux-J                     ...    480
   Maximum angular momentum in Aux-J        ...      4
Auxiliary J/K fitting basis                 ... NOT available
Auxiliary Correlation fitting basis         ... NOT available
Auxiliary 'external' fitting basis          ... NOT available
Integral threshold                          ...     1.000000e-12
Primitive cut-off                           ...     1.000000e-14
Primitive pair pre-selection threshold      ...     1.000000e-14

Calculating pre-screening integrals         ... done (  0.0 sec) Dimension = 210
Organizing shell pair data                  ... done (  0.1 sec)
Shell pair information
Total number of shell pairs                 ...     22155
Shell pairs after pre-screening             ...     14872
Total number of primitive shell pairs       ...     81395
Primitive shell pairs kept                  ...     35102
          la=0 lb=0:   4473 shell pairs
          la=1 lb=0:   5500 shell pairs
          la=1 lb=1:   1737 shell pairs
          la=2 lb=0:   1822 shell pairs
          la=2 lb=1:   1136 shell pairs
          la=2 lb=2:    204 shell pairs

Calculating one electron integrals          ... done (  0.0 sec)
Calculating RI/J V-Matrix + Cholesky decomp.... done (  0.3 sec)
Calculating Nuclear repulsion               ... done (  0.0 sec) ENN=   2037.711434303096 Eh

SHARK setup successfully completed in   0.7 seconds

Maximum memory used throughout the entire GTOINT-calculation: 26.7 MB


           ************************************************************
           *        Program running with 8 parallel MPI-processes     *
           *              working on a common directory               *
           ************************************************************
-------------------------------------------------------------------------------
                                 ORCA SCF
-------------------------------------------------------------------------------

------------
SCF SETTINGS
------------
Hamiltonian:
 Density Functional     Method          .... DFT(GTOs)
 Exchange Functional    Exchange        .... B88
   X-Alpha parameter    XAlpha          ....  0.666667
   Becke's b parameter  XBeta           ....  0.004200
 Correlation Functional Correlation     .... LYP
 LDA part of GGA corr.  LDAOpt          .... VWN-5
 Gradients option       PostSCFGGA      .... off
 Hybrid DFT is turned on
   Fraction HF Exchange ScalHFX         ....  0.200000
   Scaling of DF-GGA-X  ScalDFX         ....  0.720000
   Scaling of DF-GGA-C  ScalDFC         ....  0.810000
   Scaling of DF-LDA-C  ScalLDAC        ....  1.000000
   Perturbative correction              ....  0.000000
   Density functional embedding theory  .... OFF
   NL short-range parameter             ....  4.800000
 RI-approximation to the Coulomb term is turned on
   Number of AuxJ basis functions       .... 1472
   RIJ-COSX (HFX calculated with COS-X)).... on


General Settings:
 Integral files         IntName         .... pyrene_deriv_p1_reopt_freq
 Hartree-Fock type      HFTyp           .... RHF
 Total Charge           Charge          ....    0
 Multiplicity           Mult            ....    1
 Number of Electrons    NEL             ....  180
 Basis Dimension        Dim             ....  454
 Nuclear Repulsion      ENuc            ....   2037.7114343031 Eh

Convergence Acceleration:
 DIIS                   CNVDIIS         .... on
   Start iteration      DIISMaxIt       ....     0
   Startup error        DIISStart       ....  0.200000
   # of expansion vecs  DIISMaxEq       ....     5
   Bias factor          DIISBfac        ....   1.050
   Max. coefficient     DIISMaxC        ....  10.000
 Trust-Rad. Augm. Hess. CNVTRAH         .... auto
   Auto Start mean grad. ratio tolernc. ....  1.125000
   Auto Start start iteration           ....    20
   Auto Start num. interpolation iter.  ....    10
   Max. Number of Micro iterations      ....    16
   Max. Number of Macro iterations      .... Maxiter - #DIIS iter
   Number of Davidson start vectors     ....     2
   Converg. threshold I  (grad. norm)   ....   2.000e-06
   Converg. threshold II (energy diff.) ....   1.000e-09
   Grad. Scal. Fac. for Micro threshold ....   0.100
   Minimum threshold for Micro iter.    ....   0.010
   NR start threshold (gradient norm)   ....   0.001
   Initial trust radius                 ....   0.400
   Minimum AH scaling param. (alpha)    ....   1.000
   Maximum AH scaling param. (alpha)    .... 1000.000
   Orbital update algorithm             .... Taylor
   White noise on init. David. guess    .... on
   Maximum white noise                  ....   0.010
   Quad. conv. algorithm                .... NR
 SOSCF                  CNVSOSCF        .... on
   Start iteration      SOSCFMaxIt      ....   150
   Startup grad/error   SOSCFStart      ....  0.001000
 Level Shifting         CNVShift        .... on
   Level shift para.    LevelShift      ....    0.2500
   Turn off err/grad.   ShiftErr        ....    0.0000
 Zerner damping         CNVZerner       .... off
 Static damping         CNVDamp         .... on
   Fraction old density DampFac         ....    0.8500
   Max. Damping (<1)    DampMax         ....    0.9800
   Min. Damping (>=0)   DampMin         ....    0.0000
   Turn off err/grad.   DampErr         ....    0.0300
 Fernandez-Rico         CNVRico         .... off

SCF Procedure:
 Maximum # iterations   MaxIter         ....   125
 SCF integral mode      SCFMode         .... Direct
   Integral package                     .... SHARK and LIBINT hybrid scheme
 Reset frequency        DirectResetFreq ....    20
 Integral Threshold     Thresh          ....  1.000e-12 Eh
 Primitive CutOff       TCut            ....  1.000e-14 Eh

Convergence Tolerance:
 Convergence Check Mode ConvCheckMode   .... Total+1el-Energy
 Convergence forced     ConvForced      .... 0
 Energy Change          TolE            ....  1.000e-09 Eh
 1-El. energy change                    ....  1.000e-06 Eh
 Orbital Gradient       TolG            ....  2.000e-06
 Orbital Rotation angle TolX            ....  2.000e-06
 DIIS Error             TolErr          ....  1.000e-08


Diagonalization of the overlap matrix:
Smallest eigenvalue                        ... 1.993e-04
Time for diagonalization                   ...    0.028 sec
Threshold for overlap eigenvalues          ... 1.000e-08
Number of eigenvalues below threshold      ... 0
Time for construction of square roots      ...    0.032 sec
Total time needed                          ...    0.062 sec

Time for model grid setup =    0.323 sec

------------------------------
INITIAL GUESS: MODEL POTENTIAL
------------------------------
Loading Hartree-Fock densities                     ... done
Calculating cut-offs                               ... done
Initializing the effective Hamiltonian             ... done
Setting up the integral package (SHARK)            ... done
Starting the Coulomb interaction                   ... done (   0.2 sec)
Reading the grid                                   ... done
Mapping shells                                     ... done
Starting the XC term evaluation                    ... done (   0.1 sec)
  promolecular density results
     # of electrons  =    179.983054819
     EX              =   -148.027094042
     EC              =     -6.131019670
     EX+EC           =   -154.158113712
Transforming the Hamiltonian                       ... done (   0.0 sec)
Diagonalizing the Hamiltonian                      ... done (   0.0 sec)
Back transforming the eigenvectors                 ... done (   0.0 sec)
Now organizing SCF variables                       ... done
                      ------------------
                      INITIAL GUESS DONE (   0.7 sec)
                      ------------------
-------------------
DFT GRID GENERATION
-------------------

General Integration Accuracy     IntAcc      ... 4.959
Radial Grid Type                 RadialGrid  ... OptM3 with GC (2021)
Angular Grid (max. ang.)         AngularGrid ... 6 (Lebedev-590)
Angular grid pruning method      GridPruning ... 4 (adaptive)
Weight generation scheme         WeightScheme... Becke
Basis function cutoff            BFCut       ... 1.0000e-12
Integration weight cutoff        WCut        ... 1.0000e-14
Angular grids for H and He will be reduced by one unit
Partially contracted basis set               ... off
Rotationally invariant grid construction     ... off

Total number of grid points                  ...   521449
Total number of batches                      ...     8171
Average number of points per batch           ...       63
Average number of grid points per atom       ...    11851
Time for grid setup =    6.062 sec

--------------------
COSX GRID GENERATION
--------------------

GRIDX 1
-------
General Integration Accuracy     IntAcc      ... 4.020
Radial Grid Type                 RadialGrid  ... OptM3 with GC (2021)
Angular Grid (max. ang.)         AngularGrid ... 2 (Lebedev-110)
Angular grid pruning method      GridPruning ... 4 (adaptive)
Weight generation scheme         WeightScheme... Becke
Basis function cutoff            BFCut       ... 1.0000e-12
Integration weight cutoff        WCut        ... 1.0000e-14
Angular grids for H and He will be reduced by one unit
Partially contracted basis set               ... on
Rotationally invariant grid construction     ... off

Total number of grid points                  ...    58765
Total number of batches                      ...      941
Average number of points per batch           ...       62
Average number of grid points per atom       ...     1336
UseSFitting                                  ... on

GRIDX 2
-------
General Integration Accuracy     IntAcc      ... 4.338
Radial Grid Type                 RadialGrid  ... OptM3 with GC (2021)
Angular Grid (max. ang.)         AngularGrid ... 3 (Lebedev-194)
Angular grid pruning method      GridPruning ... 4 (adaptive)
Weight generation scheme         WeightScheme... Becke
Basis function cutoff            BFCut       ... 1.0000e-12
Integration weight cutoff        WCut        ... 1.0000e-14
Angular grids for H and He will be reduced by one unit
Partially contracted basis set               ... on
Rotationally invariant grid construction     ... off

Total number of grid points                  ...   128952
Total number of batches                      ...     2038
Average number of points per batch           ...       63
Average number of grid points per atom       ...     2931
UseSFitting                                  ... on

GRIDX 3
-------
General Integration Accuracy     IntAcc      ... 4.871
Radial Grid Type                 RadialGrid  ... OptM3 with GC (2021)
Angular Grid (max. ang.)         AngularGrid ... 4 (Lebedev-302)
Angular grid pruning method      GridPruning ... 4 (adaptive)
Weight generation scheme         WeightScheme... Becke
Basis function cutoff            BFCut       ... 1.0000e-12
Integration weight cutoff        WCut        ... 1.0000e-14
Angular grids for H and He will be reduced by one unit
Partially contracted basis set               ... on
Rotationally invariant grid construction     ... off

Total number of grid points                  ...   240062
Total number of batches                      ...     3772
Average number of points per batch           ...       63
Average number of grid points per atom       ...     5456
UseSFitting                                  ... on

Time for X-Grid setup             =    3.095 sec

--------------
SCF ITERATIONS
--------------
ITER       Energy         Delta-E        Max-DP      RMS-DP      [F,P]     Damp
               ***  Starting incremental Fock matrix formation  ***
  0  -1107.0778171460   0.000000000000 0.04588831  0.00093129  0.2533428 0.8500
  1  -1107.2090792326  -0.131262086560 0.03859505  0.00084052  0.1649535 0.8500
                               ***Turning on DIIS***
  2  -1107.2952355754  -0.086156342855 0.02449078  0.00065669  0.0911104 0.8500
  3  -1107.3512290890  -0.055993513586 0.01388002  0.00044302  0.0553562 0.8500
  4  -1107.3924743602  -0.041245271199 0.01199278  0.00033632  0.0429075 0.8500
  5  -1107.4242872300  -0.031812869747 0.01057119  0.00027261  0.0358621 0.8500
  6  -1107.4500388906  -0.025751660643 0.00928820  0.00022757  0.0301764 0.8500
  7  -1107.4713396090  -0.021300718368 0.05428823  0.00128649  0.0253195 0.0000
  8  -1107.5849307474  -0.113591138465 0.00909331  0.00007813  0.0091230 0.0000
  9  -1107.5849950887  -0.000064341244 0.00388205  0.00002852  0.0075270 0.0000
 10  -1107.5851079264  -0.000112837756 0.00071303  0.00000963  0.0015416 0.0000
                      *** Initiating the SOSCF procedure ***
                           *** Shutting down DIIS ***
                      *** Re-Reading the Fockian *** 
                      *** Removing any level shift *** 
ITER      Energy       Delta-E        Grad      Rot      Max-DP    RMS-DP
 11  -1107.58511490  -0.0000069743  0.000250  0.000250  0.000445  0.000005
               *** Restarting incremental Fock matrix formation ***
 12  -1107.58509024   0.0000246624  0.000179  0.001988  0.000738  0.000009
 13  -1107.58509058  -0.0000003454  0.000283  0.001129  0.000721  0.000007
 14  -1107.58509112  -0.0000005327  0.000141  0.001244  0.000330  0.000005
 15  -1107.58509154  -0.0000004247  0.000041  0.000175  0.000174  0.000002
 16  -1107.58509155  -0.0000000133  0.000039  0.000198  0.000074  0.000001
 17  -1107.58509161  -0.0000000554  0.000015  0.000045  0.000052  0.000001
 18  -1107.58509160   0.0000000051  0.000020  0.000056  0.000041  0.000001
 19  -1107.58509162  -0.0000000133  0.000004  0.000018  0.000015  0.000000
 20  -1107.58509162   0.0000000008  0.000007  0.000014  0.000009  0.000000
 21  -1107.58509162  -0.0000000015  0.000001  0.000002  0.000004  0.000000
 22  -1107.58509162   0.0000000002  0.000001  0.000002  0.000003  0.000000
                  ***Gradient check signals convergence***
              ***Rediagonalizing the Fockian in SOSCF/NRSCF***

               *****************************************************
               *                     SUCCESS                       *
               *           SCF CONVERGED AFTER  23 CYCLES          *
               *****************************************************

Old exchange energy                            =    -29.953232945 Eh
New exchange energy                            =    -29.953222476 Eh
Exchange energy change after final integration =      0.000010469 Eh
Total energy after final integration           =  -1107.585081150 Eh
Final COS-X integration done in                =    17.017 sec

----------------
TOTAL SCF ENERGY
----------------

Total Energy       :        -1107.58508115 Eh          -30138.92229 eV

Components:
Nuclear Repulsion  :         2037.71143430 Eh           55448.94710 eV
Electronic Energy  :        -3145.29651545 Eh          -85587.86939 eV
One Electron Energy:        -5549.68570223 Eh         -151014.62539 eV
Two Electron Energy:         2404.38918678 Eh           65426.75600 eV
Max COSX asymmetry :            0.00000059 Eh               0.00002 eV

Virial components:
Potential Energy   :        -2204.12094973 Eh          -59977.18022 eV
Kinetic Energy     :         1096.53586858 Eh           29838.25793 eV
Virial Ratio       :            2.01007647


DFT components:
N(Alpha)           :       90.000002102745 electrons
N(Beta)            :       90.000002102745 electrons
N(Total)           :      180.000004205490 electrons
E(X)               :     -119.073159004958 Eh       
E(C)               :       -7.212546630990 Eh       
E(XC)              :     -126.285705635948 Eh       
DFET-embed. en.    :        0.000000000000 Eh       

---------------
SCF CONVERGENCE
---------------

  Last Energy change         ...   -8.7084e-11  Tolerance :   1.0000e-09
  Last MAX-Density change    ...    8.4377e-15  Tolerance :   1.0000e-08
  Last RMS-Density change    ...    4.5218e-17  Tolerance :   1.0000e-09
  Last Orbital Gradient      ...    1.1991e-07  Tolerance :   2.0000e-06
  Last Orbital Rotation      ...    1.1500e-06  Tolerance :   2.0000e-06

             **** THE GBW FILE WAS UPDATED (pyrene_deriv_p1_reopt_freq.gbw) ****
             **** DENSITY pyrene_deriv_p1_reopt_freq.scfp WAS UPDATED ****
             **** ENERGY FILE WAS UPDATED (pyrene_deriv_p1_reopt_freq.en.tmp) ****
             **** THE GBW FILE WAS UPDATED (pyrene_deriv_p1_reopt_freq.gbw) ****
             **** DENSITY pyrene_deriv_p1_reopt_freq.scfp WAS UPDATED ****
----------------
ORBITAL ENERGIES
----------------

  NO   OCC          E(Eh)            E(eV) 
   0   2.0000     -19.135912      -520.7146 
   1   2.0000     -19.135658      -520.7077 
   2   2.0000     -14.534441      -395.5023 
   3   2.0000     -14.372205      -391.0876 
   4   2.0000     -10.242507      -278.7128 
   5   2.0000     -10.238055      -278.5916 
   6   2.0000     -10.237921      -278.5880 
   7   2.0000     -10.226370      -278.2737 
   8   2.0000     -10.215898      -277.9887 
   9   2.0000     -10.210867      -277.8518 
  10   2.0000     -10.210278      -277.8358 
  11   2.0000     -10.207976      -277.7732 
  12   2.0000     -10.205516      -277.7062 
  13   2.0000     -10.204487      -277.6782 
  14   2.0000     -10.201922      -277.6084 
  15   2.0000     -10.201551      -277.5983 
  16   2.0000     -10.200031      -277.5570 
  17   2.0000     -10.198779      -277.5229 
  18   2.0000     -10.196667      -277.4654 
  19   2.0000     -10.196429      -277.4590 
  20   2.0000     -10.195531      -277.4345 
  21   2.0000     -10.195453      -277.4324 
  22   2.0000     -10.195306      -277.4284 
  23   2.0000     -10.192595      -277.3546 
  24   2.0000     -10.192448      -277.3506 
  25   2.0000     -10.183246      -277.1002 
  26   2.0000      -1.194563       -32.5057 
  27   2.0000      -1.019988       -27.7553 
  28   2.0000      -0.962571       -26.1929 
  29   2.0000      -0.889734       -24.2109 
  30   2.0000      -0.855696       -23.2847 
  31   2.0000      -0.830980       -22.6121 
  32   2.0000      -0.823145       -22.3989 
  33   2.0000      -0.798843       -21.7376 
  34   2.0000      -0.779318       -21.2063 
  35   2.0000      -0.760271       -20.6880 
  36   2.0000      -0.744020       -20.2458 
  37   2.0000      -0.739169       -20.1138 
  38   2.0000      -0.729389       -19.8477 
  39   2.0000      -0.721452       -19.6317 
  40   2.0000      -0.682345       -18.5676 
  41   2.0000      -0.665700       -18.1146 
  42   2.0000      -0.632952       -17.2235 
  43   2.0000      -0.621825       -16.9207 
  44   2.0000      -0.617617       -16.8062 
  45   2.0000      -0.602762       -16.4020 
  46   2.0000      -0.573191       -15.5973 
  47   2.0000      -0.561694       -15.2845 
  48   2.0000      -0.537270       -14.6199 
  49   2.0000      -0.532484       -14.4896 
  50   2.0000      -0.530483       -14.4352 
  51   2.0000      -0.519779       -14.1439 
  52   2.0000      -0.515188       -14.0190 
  53   2.0000      -0.514563       -14.0020 
  54   2.0000      -0.505326       -13.7506 
  55   2.0000      -0.498298       -13.5594 
  56   2.0000      -0.485764       -13.2183 
  57   2.0000      -0.482595       -13.1321 
  58   2.0000      -0.473558       -12.8862 
  59   2.0000      -0.466529       -12.6949 
  60   2.0000      -0.451011       -12.2726 
  61   2.0000      -0.444571       -12.0974 
  62   2.0000      -0.439221       -11.9518 
  63   2.0000      -0.428823       -11.6689 
  64   2.0000      -0.422577       -11.4989 
  65   2.0000      -0.419391       -11.4122 
  66   2.0000      -0.416296       -11.3280 
  67   2.0000      -0.414660       -11.2835 
  68   2.0000      -0.405821       -11.0429 
  69   2.0000      -0.403497       -10.9797 
  70   2.0000      -0.401722       -10.9314 
  71   2.0000      -0.396856       -10.7990 
  72   2.0000      -0.384597       -10.4654 
  73   2.0000      -0.381276       -10.3750 
  74   2.0000      -0.380545       -10.3552 
  75   2.0000      -0.356470        -9.7000 
  76   2.0000      -0.352074        -9.5804 
  77   2.0000      -0.344118        -9.3639 
  78   2.0000      -0.337700        -9.1893 
  79   2.0000      -0.324906        -8.8411 
  80   2.0000      -0.318516        -8.6673 
  81   2.0000      -0.296651        -8.0723 
  82   2.0000      -0.287906        -7.8343 
  83   2.0000      -0.287625        -7.8267 
  84   2.0000      -0.276037        -7.5114 
  85   2.0000      -0.269431        -7.3316 
  86   2.0000      -0.262000        -7.1294 
  87   2.0000      -0.241260        -6.5650 
  88   2.0000      -0.225221        -6.1286 
  89   2.0000      -0.183381        -4.9901 
  90   0.0000      -0.093300        -2.5388 
  91   0.0000      -0.054643        -1.4869 
  92   0.0000      -0.037916        -1.0317 
  93   0.0000      -0.018289        -0.4977 
  94   0.0000      -0.005269        -0.1434 
  95   0.0000       0.026753         0.7280 
  96   0.0000       0.032250         0.8776 
  97   0.0000       0.037470         1.0196 
  98   0.0000       0.049250         1.3401 
  99   0.0000       0.064243         1.7481 
 100   0.0000       0.068729         1.8702 
 101   0.0000       0.077674         2.1136 
 102   0.0000       0.083372         2.2687 
 103   0.0000       0.087127         2.3708 
 104   0.0000       0.090780         2.4702 
 105   0.0000       0.095623         2.6020 
 106   0.0000       0.105349         2.8667 
 107   0.0000       0.109767         2.9869 
 108   0.0000       0.116037         3.1575 
 109   0.0000       0.121021         3.2931 
 110   0.0000       0.122374         3.3300 
 111   0.0000       0.132477         3.6049 
 112   0.0000       0.138029         3.7560 
 113   0.0000       0.140841         3.8325 
 114   0.0000       0.156397         4.2558 
 115   0.0000       0.162209         4.4139 
 116   0.0000       0.187671         5.1068 
 117   0.0000       0.195038         5.3072 
 118   0.0000       0.208864         5.6835 
 119   0.0000       0.214403         5.8342 
 120   0.0000       0.223168         6.0727 
 121   0.0000       0.226056         6.1513 
 122   0.0000       0.233559         6.3555 
 123   0.0000       0.241015         6.5584 
 124   0.0000       0.246891         6.7183 
 125   0.0000       0.257880         7.0173 
 126   0.0000       0.261897         7.1266 
 127   0.0000       0.264652         7.2016 
 128   0.0000       0.270018         7.3476 
 129   0.0000       0.278131         7.5683 
 130   0.0000       0.282765         7.6944 
 131   0.0000       0.298358         8.1187 
 132   0.0000       0.300645         8.1810 
 133   0.0000       0.311587         8.4787 
 134   0.0000       0.317868         8.6496 
 135   0.0000       0.321661         8.7528 
 136   0.0000       0.326678         8.8894 
 137   0.0000       0.331665         9.0251 
 138   0.0000       0.339653         9.2424 
 139   0.0000       0.343510         9.3474 
 140   0.0000       0.346486         9.4284 
 141   0.0000       0.352125         9.5818 
 142   0.0000       0.359851         9.7920 
 143   0.0000       0.363188         9.8828 
 144   0.0000       0.375686        10.2229 
 145   0.0000       0.384174        10.4539 
 146   0.0000       0.387639        10.5482 
 147   0.0000       0.401750        10.9322 
 148   0.0000       0.404768        11.0143 
 149   0.0000       0.408806        11.1242 
 150   0.0000       0.419090        11.4040 
 151   0.0000       0.426527        11.6064 
 152   0.0000       0.431886        11.7522 
 153   0.0000       0.440602        11.9894 
 154   0.0000       0.442320        12.0361 
 155   0.0000       0.447194        12.1688 
 156   0.0000       0.454214        12.3598 
 157   0.0000       0.456844        12.4314 
 158   0.0000       0.459987        12.5169 
 159   0.0000       0.465517        12.6674 
 160   0.0000       0.473179        12.8759 
 161   0.0000       0.474856        12.9215 
 162   0.0000       0.478049        13.0084 
 163   0.0000       0.481243        13.0953 
 164   0.0000       0.482224        13.1220 
 165   0.0000       0.487151        13.2560 
 166   0.0000       0.499492        13.5919 
 167   0.0000       0.500939        13.6312 
 168   0.0000       0.506880        13.7929 
 169   0.0000       0.510812        13.8999 
 170   0.0000       0.528007        14.3678 
 171   0.0000       0.532775        14.4975 
 172   0.0000       0.538159        14.6440 
 173   0.0000       0.546031        14.8583 
 174   0.0000       0.550935        14.9917 
 175   0.0000       0.562168        15.2974 
 176   0.0000       0.570920        15.5355 
 177   0.0000       0.580143        15.7865 
 178   0.0000       0.585740        15.9388 
 179   0.0000       0.594475        16.1765 
 180   0.0000       0.597777        16.2663 
 181   0.0000       0.606328        16.4990 
 182   0.0000       0.610320        16.6077 
 183   0.0000       0.611367        16.6362 
 184   0.0000       0.621752        16.9187 
 185   0.0000       0.626304        17.0426 
 186   0.0000       0.628364        17.0986 
 187   0.0000       0.629849        17.1391 
 188   0.0000       0.635277        17.2868 
 189   0.0000       0.637471        17.3465 
 190   0.0000       0.643466        17.5096 
 191   0.0000       0.645447        17.5635 
 192   0.0000       0.648515        17.6470 
 193   0.0000       0.650350        17.6969 
 194   0.0000       0.658307        17.9134 
 195   0.0000       0.660404        17.9705 
 196   0.0000       0.662898        18.0384 
 197   0.0000       0.665258        18.1026 
 198   0.0000       0.671513        18.2728 
 199   0.0000       0.676075        18.3969 
 200   0.0000       0.680900        18.5282 
 201   0.0000       0.690664        18.7939 
 202   0.0000       0.696404        18.9501 
 203   0.0000       0.707810        19.2605 
 204   0.0000       0.714778        19.4501 
 205   0.0000       0.719648        19.5826 
 206   0.0000       0.725418        19.7396 
 207   0.0000       0.727634        19.7999 
 208   0.0000       0.735821        20.0227 
 209   0.0000       0.738159        20.0863 
 210   0.0000       0.748208        20.3598 
 211   0.0000       0.753320        20.4989 
 212   0.0000       0.757054        20.6005 
 213   0.0000       0.763071        20.7642 
 214   0.0000       0.768787        20.9198 
 215   0.0000       0.771101        20.9827 
 216   0.0000       0.779152        21.2018 
 217   0.0000       0.793166        21.5832 
 218   0.0000       0.797246        21.6942 
 219   0.0000       0.797934        21.7129 
 220   0.0000       0.806765        21.9532 
 221   0.0000       0.827676        22.5222 
 222   0.0000       0.840205        22.8631 
 223   0.0000       0.840834        22.8803 
 224   0.0000       0.854047        23.2398 
 225   0.0000       0.863949        23.5093 
 226   0.0000       0.869582        23.6625 
 227   0.0000       0.874697        23.8017 
 228   0.0000       0.886548        24.1242 
 229   0.0000       0.898792        24.4574 
 230   0.0000       0.910000        24.7624 
 231   0.0000       0.923662        25.1341 
 232   0.0000       0.945182        25.7197 
 233   0.0000       0.961525        26.1644 
 234   0.0000       0.992704        27.0129 
 235   0.0000       0.996807        27.1245 
 236   0.0000       0.997950        27.1556 
 237   0.0000       1.009370        27.4664 
 238   0.0000       1.016692        27.6656 
 239   0.0000       1.034435        28.1484 
 240   0.0000       1.041501        28.3407 
 241   0.0000       1.054681        28.6993 
 242   0.0000       1.068996        29.0889 
 243   0.0000       1.098938        29.9036 
 244   0.0000       1.119375        30.4597 
 245   0.0000       1.124460        30.5981 
 246   0.0000       1.133833        30.8532 
 247   0.0000       1.141296        31.0562 
 248   0.0000       1.147960        31.2376 
 249   0.0000       1.167544        31.7705 
 250   0.0000       1.177754        32.0483 
 251   0.0000       1.184797        32.2400 
 252   0.0000       1.193460        32.4757 
 253   0.0000       1.198007        32.5994 
 254   0.0000       1.205346        32.7991 
 255   0.0000       1.209396        32.9093 
 256   0.0000       1.223267        33.2868 
 257   0.0000       1.225177        33.3388 
 258   0.0000       1.231479        33.5102 
 259   0.0000       1.232482        33.5375 
 260   0.0000       1.236818        33.6555 
 261   0.0000       1.243332        33.8328 
 262   0.0000       1.248782        33.9811 
 263   0.0000       1.250143        34.0181 
 264   0.0000       1.258609        34.2485 
 265   0.0000       1.259477        34.2721 
 266   0.0000       1.265160        34.4268 
 267   0.0000       1.277578        34.7647 
 268   0.0000       1.292278        35.1647 
 269   0.0000       1.293824        35.2067 
 270   0.0000       1.297023        35.2938 
 271   0.0000       1.308769        35.6134 
 272   0.0000       1.319703        35.9109 
 273   0.0000       1.336347        36.3638 
 274   0.0000       1.342650        36.5354 
 275   0.0000       1.348892        36.7052 
 276   0.0000       1.349916        36.7331 
 277   0.0000       1.380968        37.5780 
 278   0.0000       1.394029        37.9335 
 279   0.0000       1.398409        38.0526 
 280   0.0000       1.406500        38.2728 
 281   0.0000       1.427872        38.8544 
 282   0.0000       1.431614        38.9562 
 283   0.0000       1.441663        39.2296 
 284   0.0000       1.476149        40.1681 
 285   0.0000       1.483469        40.3672 
 286   0.0000       1.494235        40.6602 
 287   0.0000       1.498945        40.7884 
 288   0.0000       1.503473        40.9116 
 289   0.0000       1.509238        41.0685 
 290   0.0000       1.516487        41.2657 
 291   0.0000       1.527242        41.5584 
 292   0.0000       1.548080        42.1254 
 293   0.0000       1.625646        44.2361 
 294   0.0000       1.636707        44.5371 
 295   0.0000       1.643553        44.7233 
 296   0.0000       1.653881        45.0044 
 297   0.0000       1.656776        45.0832 
 298   0.0000       1.662812        45.2474 
 299   0.0000       1.679267        45.6952 
 300   0.0000       1.679533        45.7024 
 301   0.0000       1.680129        45.7186 
 302   0.0000       1.689321        45.9688 
 303   0.0000       1.700731        46.2792 
 304   0.0000       1.714225        46.6464 
 305   0.0000       1.720253        46.8105 
 306   0.0000       1.722482        46.8711 
 307   0.0000       1.724109        46.9154 
 308   0.0000       1.728444        47.0334 
 309   0.0000       1.742487        47.4155 
 310   0.0000       1.744793        47.4782 
 311   0.0000       1.750328        47.6288 
 312   0.0000       1.757961        47.8366 
 313   0.0000       1.761116        47.9224 
 314   0.0000       1.764133        48.0045 
 315   0.0000       1.768836        48.1325 
 316   0.0000       1.769414        48.1482 
 317   0.0000       1.771658        48.2093 
 318   0.0000       1.779508        48.4229 
 319   0.0000       1.781714        48.4829 
 320   0.0000       1.787134        48.6304 
 321   0.0000       1.792097        48.7654 
 322   0.0000       1.795965        48.8707 
 323   0.0000       1.804353        49.0989 
[...]
 24:    274.42   0.000410    2.07  0.000466  (-0.014725  0.015399  0.003481)
 25:    304.88   0.001402    7.08  0.001435  ( 0.017529 -0.032826  0.007053)
 26:    336.99   0.006809   34.41  0.006306  (-0.033537  0.071383 -0.009245)
 27:    383.19   0.000298    1.50  0.000242  ( 0.004753 -0.014403 -0.003514)
 28:    415.09   0.002402   12.14  0.001805  (-0.021299  0.035949  0.007712)
 29:    419.58   0.001069    5.40  0.000795  ( 0.016696 -0.022574  0.002518)
 30:    446.70   0.000404    2.04  0.000282  (-0.011821  0.011937 -0.000417)
 31:    456.73   0.001693    8.56  0.001157  (-0.019546  0.027339 -0.005247)
 32:    495.21   0.000220    1.11  0.000139  ( 0.007040  0.008327  0.004472)
 33:    505.67   0.000729    3.68  0.000450  ( 0.009388 -0.018776  0.003043)
 34:    524.64   0.000712    3.60  0.000424  (-0.001712  0.020502  0.000666)
 35:    528.19   0.000407    2.06  0.000241  ( 0.000684  0.015478 -0.000828)
 36:    561.47   0.000710    3.59  0.000395  (-0.001507  0.000276 -0.019812)
 37:    566.73   0.000197    1.00  0.000109  (-0.006789  0.005769 -0.005409)
 38:    570.37   0.000674    3.41  0.000369  ( 0.002098 -0.007465  0.017568)
 39:    580.21   0.001056    5.34  0.000568  (-0.009538  0.021813 -0.001042)
 40:    600.84   0.001977    9.99  0.001027  ( 0.017043 -0.026203  0.007060)
 41:    628.57   0.000111    0.56  0.000055  ( 0.002292 -0.006810  0.001812)
 42:    667.67   0.000245    1.24  0.000114  ( 0.003860 -0.009970  0.000059)
 43:    700.94   0.000392    1.98  0.000174  (-0.010701  0.007737  0.000106)
 44:    717.68   0.001290    6.52  0.000561  ( 0.004234 -0.004918  0.022777)
 45:    731.77   0.000517    2.61  0.000221  ( 0.013378 -0.001367 -0.006304)
 46:    742.05   0.000104    0.53  0.000044  (-0.005839 -0.002042 -0.002349)
 47:    761.95   0.002581   13.04  0.001057  ( 0.005226  0.002178  0.032015)
 48:    775.14   0.002415   12.20  0.000972  (-0.024128  0.019682  0.001616)
 49:    794.92   0.002314   11.70  0.000909  (-0.026835  0.013713 -0.000673)
 50:    816.60   0.000701    3.54  0.000268  ( 0.009007  0.000816 -0.013646)
 51:    820.55   0.004094   20.69  0.001557  ( 0.006647 -0.038854  0.001782)
 52:    824.37   0.000515    2.60  0.000195  ( 0.013153 -0.003493 -0.003128)
 53:    844.70   0.007100   35.88  0.002623  ( 0.006999 -0.006695 -0.050290)
 54:    859.01   0.000990    5.00  0.000360  (-0.017740  0.006534  0.001473)
 55:    866.42   0.002956   14.94  0.001065  ( 0.002680 -0.005370 -0.032071)
 56:    880.66   0.000008    0.04  0.000003  ( 0.001049 -0.001040 -0.000767)
 57:    886.93   0.008687   43.90  0.003057  (-0.005265  0.000992 -0.055026)
 58:    902.20   0.005306   26.82  0.001835  ( 0.029946 -0.029508 -0.008238)
 59:    942.47   0.000958    4.84  0.000317  ( 0.006540 -0.009376 -0.013659)
 60:    960.08   0.020656  104.39  0.006714  ( 0.049991 -0.055692 -0.033365)
 61:    990.76   0.020675  104.48  0.006512  (-0.044142  0.067554 -0.000277)
 62:    993.44   0.003859   19.50  0.001212  (-0.016678  0.027104 -0.014120)
 63:    995.31   0.008440   42.65  0.002646  (-0.025730  0.044308  0.004582)
 64:    999.72   0.002563   12.95  0.000800  ( 0.016849 -0.022691  0.001158)
 65:   1010.32   0.001289    6.52  0.000398  (-0.004403  0.004866 -0.018845)
 66:   1013.21   0.016610   83.94  0.005116  ( 0.038687 -0.060023  0.004053)
 67:   1015.21   0.001484    7.50  0.000456  (-0.008253  0.012729  0.015029)
 68:   1017.43   0.000838    4.23  0.000257  ( 0.004844 -0.005610  0.014215)
 69:   1082.45   0.002605   13.16  0.000751  ( 0.024053 -0.003708  0.012598)
 70:   1108.30   0.047778  241.45  0.013453  ( 0.054124 -0.101953 -0.011365)
 71:   1113.16   0.000936    4.73  0.000263  ( 0.011913 -0.007293  0.008210)
 72:   1128.23   0.021120  106.73  0.005842  (-0.044396  0.062099  0.003808)
 73:   1132.82   0.001390    7.02  0.000383  (-0.013675  0.013984  0.000562)
 74:   1153.34   0.021046  106.36  0.005694  (-0.040246  0.063423 -0.007226)
 75:   1179.11   0.000117    0.59  0.000031  (-0.000717  0.005509 -0.000140)
 76:   1187.89   0.001148    5.80  0.000302  ( 0.014215 -0.009974 -0.000023)
 77:   1202.27   0.011637   58.81  0.003021  (-0.026334  0.048199 -0.002005)
 78:   1210.72   0.003083   15.58  0.000795  ( 0.021353  0.018384 -0.000844)
 79:   1233.38   0.002417   12.22  0.000612  ( 0.013888 -0.020376 -0.001891)
 80:   1246.67   0.005610   28.35  0.001404  ( 0.006775  0.035126  0.011158)
 81:   1261.88   0.119729  605.06  0.029609  ( 0.090426 -0.146316  0.004888)
 82:   1265.83   0.004432   22.40  0.001093  (-0.017460  0.027690  0.004599)
 83:   1275.42   0.024182  122.20  0.005917  (-0.044178  0.062780 -0.004864)
 84:   1283.16   0.013991   70.71  0.003403  (-0.033462  0.047596 -0.004201)
 85:   1320.20   0.016558   83.68  0.003914  ( 0.035757 -0.051298 -0.001946)
 86:   1326.75   0.013149   66.45  0.003093  (-0.027444  0.048052  0.005528)
 87:   1339.04   0.000387    1.96  0.000090  ( 0.005526  0.006671 -0.003897)
 88:   1371.06   0.002231   11.28  0.000508  ( 0.009626 -0.020353 -0.000967)
 89:   1380.26   0.002336   11.80  0.000528  (-0.021751 -0.004176 -0.006123)
 90:   1391.44   0.209682  1059.65  0.047026  ( 0.140109 -0.165334  0.007747)
 91:   1402.10   0.097210  491.26  0.021636  ( 0.099458 -0.108233  0.005435)
 92:   1405.67   0.000047    0.24  0.000010  ( 0.001238  0.002764 -0.001113)
 93:   1419.09   0.016939   85.60  0.003725  (-0.043104  0.042903  0.005123)
 94:   1426.56   0.016895   85.38  0.003696  ( 0.023925 -0.055843 -0.002228)
 95:   1435.03   0.014306   72.30  0.003111  ( 0.029945 -0.046743 -0.005422)
 96:   1443.06   0.000021    0.11  0.000005  (-0.002133 -0.000286  0.000122)
 97:   1451.70   0.001590    8.03  0.000342  (-0.010134 -0.008778  0.012729)
 98:   1455.68   0.003047   15.40  0.000653  (-0.005915  0.019209  0.015787)
 99:   1460.92   0.014589   73.73  0.003116  (-0.030619  0.044755 -0.013256)
100:   1467.15   0.008547   43.19  0.001818  (-0.031639  0.028295 -0.004035)
101:   1484.50   0.007579   38.30  0.001593  ( 0.012426 -0.037922 -0.000778)
102:   1503.33   0.003424   17.30  0.000711  ( 0.019191 -0.018371  0.002208)
103:   1508.39   0.004880   24.66  0.001009  (-0.029342  0.012181 -0.000406)
104:   1534.98   0.001113    5.62  0.000226  ( 0.013843 -0.005873 -0.000313)
105:   1548.63   0.007854   39.69  0.001583  ( 0.010072 -0.038410  0.002444)
106:   1570.74   0.009145   46.21  0.001817  ( 0.030734 -0.029530 -0.000474)
107:   1619.28   0.002019   10.20  0.000389  ( 0.006650 -0.018571  0.000082)
108:   1625.31   0.102977  520.41  0.019772  (-0.114859  0.081113  0.000144)
109:   1642.58   0.079860  403.58  0.015172  ( 0.044331 -0.114916  0.001087)
110:   1657.32   0.004195   21.20  0.000790  ( 0.025277  0.011951 -0.002844)
111:   1664.56   0.084685  427.96  0.015876  (-0.038639  0.119907 -0.002382)
112:   1690.13   0.083476  421.85  0.015413  (-0.083062  0.092003  0.007016)
113:   1692.89   0.089414  451.86  0.016482  (-0.040841  0.121678 -0.003000)
114:   2972.22   0.007456   37.68  0.000783  (-0.017292 -0.018467 -0.011948)
115:   2978.72   0.048618  245.69  0.005093  ( 0.047818 -0.046346 -0.025668)
116:   3067.18   0.009041   45.69  0.000920  (-0.003407  0.025546 -0.015989)
117:   3072.70   0.005519   27.89  0.000560  ( 0.008662 -0.011654  0.018698)
118:   3124.88   0.000917    4.64  0.000092  (-0.003909 -0.007755 -0.004020)
119:   3126.96   0.005037   25.46  0.000503  (-0.018068  0.013149 -0.001837)
120:   3164.95   0.001177    5.95  0.000116  (-0.009651 -0.003290 -0.003479)
121:   3170.06   0.000275    1.39  0.000027  (-0.003431  0.003717  0.001212)
122:   3173.55   0.001499    7.57  0.000147  ( 0.012107  0.000813 -0.000349)
123:   3173.70   0.001761    8.90  0.000173  (-0.013114  0.000759  0.000753)
124:   3177.34   0.002071   10.47  0.000203  ( 0.014257 -0.000317 -0.000228)
125:   3192.35   0.004268   21.57  0.000417  ( 0.005596  0.019592 -0.001437)
126:   3198.13   0.002316   11.71  0.000226  ( 0.005404  0.014006 -0.000806)
127:   3200.59   0.001782    9.00  0.000174  ( 0.006185 -0.011375  0.002463)
128:   3205.39   0.000952    4.81  0.000093  (-0.009275 -0.002572  0.000301)
129:   3216.52   0.004506   22.77  0.000437  (-0.019811  0.006584 -0.001170)
130:   3223.36   0.000457    2.31  0.000044  ( 0.005942 -0.002996  0.000027)
131:   3253.93   0.003400   17.18  0.000326  ( 0.009550 -0.015312  0.000658)

* The epsilon (eps) is given for a Dirac delta lineshape.
** The dipole moment derivative (T) already includes vibrational overlap.

The first frequency considered to be a vibration is 6
The total number of vibrations considered is 126


--------------------------
THERMOCHEMISTRY AT 298.15K
--------------------------

Temperature         ... 298.15 K
Pressure            ... 1.00 atm
Total Mass          ... 342.40 AMU

Throughout the following assumptions are being made:
  (1) The electronic state is orbitally nondegenerate
  (2) There are no thermally accessible electronically excited states
  (3) Hindered rotations indicated by low frequency modes are not
      treated as such but are treated as vibrations and this may
      cause some error
  (4) All equations used are the standard statistical mechanics
      equations for an ideal gas
  (5) All vibrations are strictly harmonic

freq.      18.61  E(vib)   ...       0.57 
freq.      28.15  E(vib)   ...       0.55 
freq.      36.63  E(vib)   ...       0.54 
freq.      54.10  E(vib)   ...       0.52 
freq.      55.87  E(vib)   ...       0.52 
freq.      83.87  E(vib)   ...       0.48 
freq.      97.35  E(vib)   ...       0.46 
freq.     121.97  E(vib)   ...       0.44 
freq.     128.85  E(vib)   ...       0.43 
freq.     146.80  E(vib)   ...       0.41 
freq.     177.20  E(vib)   ...       0.37 
freq.     185.74  E(vib)   ...       0.37 
freq.     197.29  E(vib)   ...       0.35 
freq.     203.11  E(vib)   ...       0.35 
freq.     222.43  E(vib)   ...       0.33 
freq.     244.07  E(vib)   ...       0.31 
freq.     264.08  E(vib)   ...       0.29 
freq.     270.50  E(vib)   ...       0.29 
freq.     274.42  E(vib)   ...       0.28 
freq.     304.88  E(vib)   ...       0.26 
freq.     336.99  E(vib)   ...       0.24 
freq.     383.19  E(vib)   ...       0.20 
freq.     415.09  E(vib)   ...       0.19 
freq.     419.58  E(vib)   ...       0.18 
freq.     446.70  E(vib)   ...       0.17 
freq.     456.73  E(vib)   ...       0.16 
freq.     495.21  E(vib)   ...       0.14 
freq.     505.67  E(vib)   ...       0.14 
freq.     524.64  E(vib)   ...       0.13 
freq.     528.19  E(vib)   ...       0.13 
freq.     561.47  E(vib)   ...       0.11 
freq.     566.73  E(vib)   ...       0.11 
freq.     570.37  E(vib)   ...       0.11 
freq.     580.21  E(vib)   ...       0.11 
freq.     600.84  E(vib)   ...       0.10 
freq.     628.57  E(vib)   ...       0.09 
freq.     667.67  E(vib)   ...       0.08 
freq.     700.94  E(vib)   ...       0.07 
freq.     717.68  E(vib)   ...       0.07 
freq.     731.77  E(vib)   ...       0.06 
freq.     742.05  E(vib)   ...       0.06 
freq.     761.95  E(vib)   ...       0.06 
freq.     775.14  E(vib)   ...       0.05 
freq.     794.92  E(vib)   ...       0.05 
freq.     816.60  E(vib)   ...       0.05 
freq.     820.55  E(vib)   ...       0.05 
freq.     824.37  E(vib)   ...       0.04 
freq.     844.70  E(vib)   ...       0.04 
freq.     859.01  E(vib)   ...       0.04 
freq.     866.42  E(vib)   ...       0.04 
freq.     880.66  E(vib)   ...       0.04 
freq.     886.93  E(vib)   ...       0.04 
freq.     902.20  E(vib)   ...       0.03 
freq.     942.47  E(vib)   ...       0.03 
freq.     960.08  E(vib)   ...       0.03 
freq.     990.76  E(vib)   ...       0.02 
freq.     993.44  E(vib)   ...       0.02 
freq.     995.31  E(vib)   ...       0.02 
freq.     999.72  E(vib)   ...       0.02 
freq.    1010.32  E(vib)   ...       0.02 
freq.    1013.21  E(vib)   ...       0.02 
freq.    1015.21  E(vib)   ...       0.02 
freq.    1017.43  E(vib)   ...       0.02 
freq.    1082.45  E(vib)   ...       0.02 
freq.    1108.30  E(vib)   ...       0.02 
freq.    1113.16  E(vib)   ...       0.01 
freq.    1128.23  E(vib)   ...       0.01 
freq.    1132.82  E(vib)   ...       0.01 
freq.    1153.34  E(vib)   ...       0.01 
freq.    1179.11  E(vib)   ...       0.01 
freq.    1187.89  E(vib)   ...       0.01 
freq.    1202.27  E(vib)   ...       0.01 
freq.    1210.72  E(vib)   ...       0.01 
freq.    1233.38  E(vib)   ...       0.01 
freq.    1246.67  E(vib)   ...       0.01 
freq.    1261.88  E(vib)   ...       0.01 
freq.    1265.83  E(vib)   ...       0.01 
freq.    1275.42  E(vib)   ...       0.01 
freq.    1283.16  E(vib)   ...       0.01 
freq.    1320.20  E(vib)   ...       0.01 
freq.    1326.75  E(vib)   ...       0.01 
freq.    1339.04  E(vib)   ...       0.01 
freq.    1371.06  E(vib)   ...       0.01 
freq.    1380.26  E(vib)   ...       0.01 
freq.    1391.44  E(vib)   ...       0.00 
freq.    1402.10  E(vib)   ...       0.00 
freq.    1405.67  E(vib)   ...       0.00 
freq.    1419.09  E(vib)   ...       0.00 
freq.    1426.56  E(vib)   ...       0.00 
freq.    1435.03  E(vib)   ...       0.00 
freq.    1443.06  E(vib)   ...       0.00 
freq.    1451.70  E(vib)   ...       0.00 
freq.    1455.68  E(vib)   ...       0.00 
freq.    1460.92  E(vib)   ...       0.00 
freq.    1467.15  E(vib)   ...       0.00 
freq.    1484.50  E(vib)   ...       0.00 
freq.    1503.33  E(vib)   ...       0.00 
freq.    1508.39  E(vib)   ...       0.00 
freq.    1534.98  E(vib)   ...       0.00 
freq.    1548.63  E(vib)   ...       0.00 
freq.    1570.74  E(vib)   ...       0.00 
freq.    1619.28  E(vib)   ...       0.00 
freq.    1625.31  E(vib)   ...       0.00 
freq.    1642.58  E(vib)   ...       0.00 
freq.    1657.32  E(vib)   ...       0.00 
freq.    1664.56  E(vib)   ...       0.00 
freq.    1690.13  E(vib)   ...       0.00 
freq.    1692.89  E(vib)   ...       0.00 
freq.    2972.22  E(vib)   ...       0.00 
freq.    2978.72  E(vib)   ...       0.00 
freq.    3067.18  E(vib)   ...       0.00 
freq.    3072.70  E(vib)   ...       0.00 
freq.    3124.88  E(vib)   ...       0.00 
freq.    3126.96  E(vib)   ...       0.00 
freq.    3164.95  E(vib)   ...       0.00 
freq.    3170.06  E(vib)   ...       0.00 
freq.    3173.55  E(vib)   ...       0.00 
freq.    3173.70  E(vib)   ...       0.00 
freq.    3177.34  E(vib)   ...       0.00 
freq.    3192.35  E(vib)   ...       0.00 
freq.    3198.13  E(vib)   ...       0.00 
freq.    3200.59  E(vib)   ...       0.00 
freq.    3205.39  E(vib)   ...       0.00 
freq.    3216.52  E(vib)   ...       0.00 
freq.    3223.36  E(vib)   ...       0.00 
freq.    3253.93  E(vib)   ...       0.00 

------------
INNER ENERGY
------------

The inner energy is: U= E(el) + E(ZPE) + E(vib) + E(rot) + E(trans)
    E(el)   - is the total energy from the electronic structure calculation
              = E(kin-el) + E(nuc-el) + E(el-el) + E(nuc-nuc)
    E(ZPE)  - the the zero temperature vibrational energy from the frequency calculation
    E(vib)  - the the finite temperature correction to E(ZPE) due to population
              of excited vibrational states
    E(rot)  - is the rotational thermal energy
    E(trans)- is the translational thermal energy

Summary of contributions to the inner energy U:
Electronic energy                ...  -1107.58567401 Eh
Zero point energy                ...      0.35007024 Eh     219.67 kcal/mol
Thermal vibrational correction   ...      0.01882911 Eh      11.82 kcal/mol
Thermal rotational correction    ...      0.00141627 Eh       0.89 kcal/mol
Thermal translational correction ...      0.00141627 Eh       0.89 kcal/mol
-----------------------------------------------------------------------
Total thermal energy                  -1107.21394211 Eh


Summary of corrections to the electronic energy:
(perhaps to be used in another calculation)
Total thermal correction                  0.02166166 Eh      13.59 kcal/mol
Non-thermal (ZPE) correction              0.35007024 Eh     219.67 kcal/mol
-----------------------------------------------------------------------
Total correction                          0.37173190 Eh     233.26 kcal/mol


--------
ENTHALPY
--------

The enthalpy is H = U + kB*T
                kB is Boltzmann's constant
Total free energy                 ...  -1107.21394211 Eh 
Thermal Enthalpy correction       ...      0.00094421 Eh       0.59 kcal/mol
-----------------------------------------------------------------------
Total Enthalpy                    ...  -1107.21299791 Eh


Note: Only C1 symmetry has been detected, increase convergence thresholds 
      if your molecule has a higher symmetry. Symmetry factor of 1.0 is   
      used for the rotational entropy correction. 
 

Note: Rotational entropy computed according to Herzberg 
Infrared and Raman Spectra, Chapter V,1, Van Nostrand Reinhold, 1945 
Point Group:  C1, Symmetry Number:   1  
Rotational constants in cm-1:     0.022928     0.002466     0.002239 

Vibrational entropy computed according to the QRRHO of S. Grimme
Chem.Eur.J. 2012 18 9955


-------
ENTROPY
-------

The entropy contributions are T*S = T*(S(el)+S(vib)+S(rot)+S(trans))
     S(el)   - electronic entropy
     S(vib)  - vibrational entropy
     S(rot)  - rotational entropy
     S(trans)- translational entropy
The entropies will be listed as multiplied by the temperature to get
units of energy

Electronic entropy                ...      0.00000000 Eh      0.00 kcal/mol
Vibrational entropy               ...      0.03332753 Eh     20.91 kcal/mol
Rotational entropy                ...      0.01700876 Eh     10.67 kcal/mol
Translational entropy             ...      0.02061439 Eh     12.94 kcal/mol
-----------------------------------------------------------------------
Final entropy term                ...      0.07095068 Eh     44.52 kcal/mol

In case the symmetry of your molecule has not been determined correctly
or in case you have a reason to use a different symmetry number we print 
out the resulting rotational entropy values for sn=1,12 :
 --------------------------------------------------------
|  sn= 1 | S(rot)=       0.01700876 Eh     10.67 kcal/mol|
|  sn= 2 | S(rot)=       0.01635430 Eh     10.26 kcal/mol|
|  sn= 3 | S(rot)=       0.01597147 Eh     10.02 kcal/mol|
|  sn= 4 | S(rot)=       0.01569985 Eh      9.85 kcal/mol|
|  sn= 5 | S(rot)=       0.01548916 Eh      9.72 kcal/mol|
|  sn= 6 | S(rot)=       0.01531701 Eh      9.61 kcal/mol|
|  sn= 7 | S(rot)=       0.01517147 Eh      9.52 kcal/mol|
|  sn= 8 | S(rot)=       0.01504539 Eh      9.44 kcal/mol|
|  sn= 9 | S(rot)=       0.01493418 Eh      9.37 kcal/mol|
|  sn=10 | S(rot)=       0.01483470 Eh      9.31 kcal/mol|
|  sn=11 | S(rot)=       0.01474471 Eh      9.25 kcal/mol|
|  sn=12 | S(rot)=       0.01466256 Eh      9.20 kcal/mol|
 --------------------------------------------------------


-------------------
GIBBS FREE ENERGY
-------------------

The Gibbs free energy is G = H - T*S

Total enthalpy                    ...  -1107.21299791 Eh 
Total entropy correction          ...     -0.07095068 Eh    -44.52 kcal/mol
-----------------------------------------------------------------------
Final Gibbs free energy         ...  -1107.28394859 Eh

For completeness - the Gibbs free energy minus the electronic energy
G-E(el)                           ...      0.30172542 Eh    189.34 kcal/mol


Timings for individual modules:

Sum of individual times         ...     4579.727 sec (=  76.329 min)
GTO integral calculation        ...       15.656 sec (=   0.261 min)   0.3 %
SCF iterations                  ...     2652.287 sec (=  44.205 min)  57.9 %
SCF Gradient evaluation         ...      498.021 sec (=   8.300 min)  10.9 %
Geometry relaxation             ...        2.377 sec (=   0.040 min)   0.1 %
Analytical frequency calculation...     1411.386 sec (=  23.523 min)  30.8 %
                             ****ORCA TERMINATED NORMALLY****
TOTAL RUN TIME: 0 days 1 hours 16 minutes 45 seconds 296 msec
