Start Job  on nano04

                                 *****************
                                 * O   R   C   A *
                                 *****************

                                            #,                                       
                                            ###                                      
                                            ####                                     
                                            #####                                    
                                            ######                                   
                                           ########,                                 
                                     ,,################,,,,,                         
                               ,,#################################,,                 
                          ,,##########################################,,             
                       ,#########################################, ''#####,          
                    ,#############################################,,   '####,        
                  ,##################################################,,,,####,       
                ,###########''''           ''''###############################       
              ,#####''   ,,,,##########,,,,          '''####'''          '####       
            ,##' ,,,,###########################,,,                        '##       
           ' ,,###''''                  '''############,,,                           
         ,,##''                                '''############,,,,        ,,,,,,###''
      ,#''                                            '''#######################'''  
     '                                                          ''''####''''         
             ,#######,   #######,   ,#######,      ##                                
            ,#'     '#,  ##    ##  ,#'     '#,    #''#        ######   ,####,        
            ##       ##  ##   ,#'  ##            #'  '#       #        #'  '#        
            ##       ##  #######   ##           ,######,      #####,   #    #        
            '#,     ,#'  ##    ##  '#,     ,#' ,#      #,         ##   #,  ,#        
             '#######'   ##     ##  '#######'  #'      '#     #####' # '####'        



                  #######################################################
                  #                        -***-                        #
                  #          Department of theory and spectroscopy      #
                  #    Directorship and core code : Frank Neese         #
                  #        Max Planck Institute fuer Kohlenforschung    #
                  #                Kaiser Wilhelm Platz 1               #
                  #                 D-45470 Muelheim/Ruhr               #
                  #                      Germany                        #
                  #                                                     #
                  #                  All rights reserved                #
                  #                        -***-                        #
                  #######################################################


                         Program Version 5.0.4 -  RELEASE  -


 With contributions from (in alphabetic order):
   Daniel Aravena         : Magnetic Suceptibility
   Michael Atanasov       : Ab Initio Ligand Field Theory (pilot matlab implementation)
   Alexander A. Auer      : GIAO ZORA, VPT2 properties, NMR spectrum
   Ute Becker             : Parallelization
   Giovanni Bistoni       : ED, misc. LED, open-shell LED, HFLD
   Martin Brehm           : Molecular dynamics
   Dmytro Bykov           : SCF Hessian
   Vijay G. Chilkuri      : MRCI spin determinant printing, contributions to CSF-ICE
   Dipayan Datta          : RHF DLPNO-CCSD density
   Achintya Kumar Dutta   : EOM-CC, STEOM-CC
   Dmitry Ganyushin       : Spin-Orbit,Spin-Spin,Magnetic field MRCI
   Miquel Garcia          : C-PCM and meta-GGA Hessian, CC/C-PCM, Gaussian charge scheme
   Yang Guo               : DLPNO-NEVPT2, F12-NEVPT2, CIM, IAO-localization
   Andreas Hansen         : Spin unrestricted coupled pair/coupled cluster methods
   Benjamin Helmich-Paris : MC-RPA, TRAH-SCF, COSX integrals
   Lee Huntington         : MR-EOM, pCC
   Robert Izsak           : Overlap fitted RIJCOSX, COSX-SCS-MP3, EOM
   Marcus Kettner         : VPT2
   Christian Kollmar      : KDIIS, OOCD, Brueckner-CCSD(T), CCSD density, CASPT2, CASPT2-K
   Simone Kossmann        : Meta GGA functionals, TD-DFT gradient, OOMP2, MP2 Hessian
   Martin Krupicka        : Initial AUTO-CI
   Lucas Lang             : DCDCAS
   Marvin Lechner         : AUTO-CI (C++ implementation), FIC-MRCC
   Dagmar Lenk            : GEPOL surface, SMD
   Dimitrios Liakos       : Extrapolation schemes; Compound Job, initial MDCI parallelization
   Dimitrios Manganas     : Further ROCIS development; embedding schemes
   Dimitrios Pantazis     : SARC Basis sets
   Anastasios Papadopoulos: AUTO-CI, single reference methods and gradients
   Taras Petrenko         : DFT Hessian,TD-DFT gradient, ASA, ECA, R-Raman, ABS, FL, XAS/XES, NRVS
   Peter Pinski           : DLPNO-MP2, DLPNO-MP2 Gradient
   Christoph Reimann      : Effective Core Potentials
   Marius Retegan         : Local ZFS, SOC
   Christoph Riplinger    : Optimizer, TS searches, QM/MM, DLPNO-CCSD(T), (RO)-DLPNO pert. Triples
   Tobias Risthaus        : Range-separated hybrids, TD-DFT gradient, RPA, STAB
   Michael Roemelt        : Original ROCIS implementation
   Masaaki Saitow         : Open-shell DLPNO-CCSD energy and density
   Barbara Sandhoefer     : DKH picture change effects
   Avijit Sen             : IP-ROCIS
   Kantharuban Sivalingam : CASSCF convergence, NEVPT2, FIC-MRCI
   Bernardo de Souza      : ESD, SOC TD-DFT
   Georgi Stoychev        : AutoAux, RI-MP2 NMR, DLPNO-MP2 response
   Willem Van den Heuvel  : Paramagnetic NMR
   Boris Wezisla          : Elementary symmetry handling
   Frank Wennmohs         : Technical directorship


 We gratefully acknowledge several colleagues who have allowed us to
 interface, adapt or use parts of their codes:
   Stefan Grimme, W. Hujo, H. Kruse, P. Pracht,  : VdW corrections, initial TS optimization,
                  C. Bannwarth, S. Ehlert          DFT functionals, gCP, sTDA/sTD-DF
   Ed Valeev, F. Pavosevic, A. Kumar             : LibInt (2-el integral package), F12 methods
   Garnet Chan, S. Sharma, J. Yang, R. Olivares  : DMRG
   Ulf Ekstrom                                   : XCFun DFT Library
   Mihaly Kallay                                 : mrcc  (arbitrary order and MRCC methods)
   Jiri Pittner, Ondrej Demel                    : Mk-CCSD
   Frank Weinhold                                : gennbo (NPA and NBO analysis)
   Christopher J. Cramer and Donald G. Truhlar   : smd solvation model
   Lars Goerigk                                  : TD-DFT with DH, B97 family of functionals
   V. Asgeirsson, H. Jonsson                     : NEB implementation
   FAccTs GmbH                                   : IRC, NEB, NEB-TS, DLPNO-Multilevel, CI-OPT
                                                   MM, QMMM, 2- and 3-layer-ONIOM, Crystal-QMMM,
                                                   LR-CPCM, SF, NACMEs, symmetry and pop. for TD-DFT,
                                                   nearIR, NL-DFT gradient (VV10), updates on ESD,
                                                   ML-optimized integration grids
   S Lehtola, MJT Oliveira, MAL Marques          : LibXC Library
   Liviu Ungur et al                             : ANISO software


 Your calculation uses the libint2 library for the computation of 2-el integrals
 For citations please refer to: http://libint.valeyev.net

 Your ORCA version has been built with support for libXC version: 5.1.0
 For citations please refer to: https://tddft.org/programs/libxc/

 This ORCA versions uses:
   CBLAS   interface :  Fast vector & matrix operations
   LAPACKE interface :  Fast linear algebra routines
   SCALAPACK package :  Parallel linear algebra routines
   Shared memory     :  Shared parallel matrices
   BLAS/LAPACK       :  OpenBLAS 0.3.15  USE64BITINT DYNAMIC_ARCH NO_AFFINITY Zen SINGLE_THREADED
        Core in use  :  Zen
   Copyright (c) 2011-2014, The OpenBLAS Project


================================================================================

----- Orbital basis set information -----
Your calculation utilizes the basis: def2-SVP
   F. Weigend and R. Ahlrichs, Phys. Chem. Chem. Phys. 7, 3297 (2005).

----- AuxJ basis set information -----
Your calculation utilizes the auxiliary basis: def2/J
   F. Weigend, Phys. Chem. Chem. Phys. 8, 1057 (2006).

================================================================================
                                        WARNINGS
                       Please study these warnings very carefully!
================================================================================


WARNING: Geometry Optimization
  ===> : Switching off AutoStart
         For restart on a previous wavefunction, please use MOREAD

INFO   : the flag for use of the SHARK integral package has been found!

================================================================================
                                       INPUT FILE
================================================================================
NAME = NO2_OMe.inp
|  1> ! B3LYP def2-SVP Opt PAL8 FREQ 
|  2> #defgrid3 slowconv VeryTightSCF
|  3> *xyz 0 1
|  4>   C   -7.117698    3.174210   -0.265269
|  5>   C   -5.907082    3.766015   -0.239255
|  6>   C   -4.771567    3.065390   -0.158900
|  7>   C   -4.813823    1.728256   -0.101786
|  8>   C   -3.666934    1.040811   -0.022369
|  9>   C   -3.683753   -0.295329    0.034640
| 10>   C   -4.832470   -1.000677    0.015485
| 11>   C   -4.853659   -2.361261    0.071961
| 12>   C   -6.061339   -2.958151    0.047900
| 13>   C   -7.197568   -2.258131   -0.028531
| 14>   C   -7.156107   -0.920598   -0.084841
| 15>   C   -8.302702   -0.232908   -0.162631
| 16>   C   -8.285798    1.103269   -0.221093
| 17>   C   -7.138854    1.812574   -0.204738
| 18>   C   -5.994516    1.083437   -0.123814
| 19>   C   -5.977125   -0.272677   -0.063818
| 20>   C   -8.227386    3.950251   -0.349214
| 21>   C   -3.745562   -3.137174    0.147940
| 22>   C   -8.332449    5.294189   -0.415680
| 23>   C   -3.644524   -4.478967    0.207583
| 24>   O   -2.419775   -5.085551    0.297884
| 25>   C   -2.385021   -6.231339    1.119099
| 26>   N   -9.420823    5.916420   -0.492251
| 27>   O   -9.430902    7.229740   -0.552460
| 28>   O  -10.602112    5.343188   -0.518215
| 29>   H   -5.762356    4.855328   -0.281762
| 30>   H   -3.810226    3.608219   -0.141589
| 31>   H   -2.693041    1.561159   -0.002990
| 32>   H   -2.683878   -0.746904    0.097573
| 33>   H   -6.196763   -4.049150    0.087768
| 34>   H   -8.158280   -2.801960   -0.045153
| 35>   H   -9.276410   -0.753784   -0.180283
| 36>   H   -9.288308    1.548953   -0.282568
| 37>   H   -9.209081    3.459558   -0.369912
| 38>   H   -2.747358   -2.676574    0.164404
| 39>   H   -7.428738    5.922115   -0.405254
| 40>   H   -4.511966   -5.154728    0.221307
| 41>   H   -1.334727   -6.597603    1.158423
| 42>   H   -2.718456   -5.970102    2.148635
| 43>   H   -3.028467   -7.031944    0.690118
| 44> **                         ****END OF INPUT****
================================================================================

                       *****************************
                       * Geometry Optimization Run *
                       *****************************

Geometry optimization settings:
Update method            Update   .... BFGS
Choice of coordinates    CoordSys .... Z-matrix Internals
Initial Hessian          InHess   .... Almoef's Model

Convergence Tolerances:
Energy Change            TolE     ....  5.0000e-06 Eh
Max. Gradient            TolMAXG  ....  3.0000e-04 Eh/bohr
RMS Gradient             TolRMSG  ....  1.0000e-04 Eh/bohr
Max. Displacement        TolMAXD  ....  4.0000e-03 bohr
RMS Displacement         TolRMSD  ....  2.0000e-03 bohr
Strict Convergence                ....  False
------------------------------------------------------------------------------
                        ORCA OPTIMIZATION COORDINATE SETUP
------------------------------------------------------------------------------

The optimization will be done in new redundant internal coordinates
Making redundant internal coordinates   ...  (new redundants) done
Evaluating the initial hessian          ...  (Almloef) done
Evaluating the coordinates              ...  done
Calculating the B-matrix                .... done
Calculating the G-matrix                .... done
Diagonalizing the G-matrix              .... done
Small eigenvalue found = 3.187e-03
Small eigenvalue found = 8.394e-03
Small eigenvalue found = 9.404e-03
Small eigenvalue found = 2.440e-02
The first mode is                       ....  100
The number of degrees of freedom        ....  114

    -----------------------------------------------------------------
                    Redundant Internal Coordinates


    -----------------------------------------------------------------
         Definition                    Initial Value    Approx d2E/dq
    -----------------------------------------------------------------
      1. B(C   1,C   0)                  1.3478         0.729632   
      2. B(C   2,C   1)                  1.3367         0.759975   
      3. B(C   3,C   2)                  1.3390         0.753483   
      4. B(C   4,C   3)                  1.3395         0.752175   
      5. B(C   5,C   4)                  1.3375         0.757810   
      6. B(C   6,C   5)                  1.3481         0.728705   
      7. B(C   7,C   6)                  1.3619         0.692688   
      8. B(C   8,C   7)                  1.3473         0.730780   
      9. B(C   9,C   8)                  1.3367         0.759809   
     10. B(C  10,C   9)                  1.3394         0.752544   
     11. B(C  11,C  10)                  1.3393         0.752787   
     12. B(C  12,C  11)                  1.3376         0.757530   
     13. B(C  13,C  12)                  1.3487         0.727289   
     14. B(C  13,C   0)                  1.3631         0.689579   
     15. B(C  14,C   3)                  1.3455         0.735817   
     16. B(C  14,C  13)                  1.3593         0.699386   
     17. B(C  15,C  14)                  1.3576         0.703894   
     18. B(C  15,C  10)                  1.3455         0.735887   
     19. B(C  15,C   6)                  1.3589         0.700513   
     20. B(C  16,C   0)                  1.3567         0.706044   
     21. B(C  17,C   7)                  1.3549         0.710844   
     22. B(C  18,C  16)                  1.3497         0.724558   
     23. B(C  19,C  17)                  1.3469         0.731950   
     24. B(O  20,C  19)                  1.3697         0.602900   
     25. B(C  21,O  20)                  1.4101         0.519731   
     26. B(N  22,C  18)                  1.2560         0.915436   
     27. B(O  23,N  22)                  1.3147         0.660827   
     28. B(O  24,N  22)                  1.3133         0.664369   
     29. B(H  25,C   1)                  1.0997         0.347485   
     30. B(H  26,C   2)                  1.1041         0.341864   
     31. B(H  27,C   4)                  1.1044         0.341599   
     32. B(H  28,C   5)                  1.0989         0.348488   
     33. B(H  29,C   8)                  1.1001         0.346991   
     34. B(H  30,C   9)                  1.1041         0.341947   
     35. B(H  31,C  11)                  1.1044         0.341528   
     36. B(H  32,C  12)                  1.0988         0.348599   
     37. B(H  33,C  16)                  1.0977         0.350064   
     38. B(H  34,C  17)                  1.0995         0.347788   
     39. B(H  35,C  18)                  1.1005         0.346478   
     40. B(H  36,C  19)                  1.0997         0.347519   
     41. B(H  37,C  21)                  1.1130         0.330900   
     42. B(H  38,C  21)                  1.1133         0.330597   
     43. B(H  39,C  21)                  1.1131         0.330789   
     44. A(C   1,C   0,C  13)          116.8525         0.455743   
     45. A(C   1,C   0,C  16)          118.9936         0.457707   
     46. A(C  13,C   0,C  16)          124.1539         0.453025   
     47. A(C   2,C   1,H  25)          114.1874         0.363131   
     48. A(C   0,C   1,H  25)          123.5327         0.360615   
     49. A(C   0,C   1,C   2)          122.2799         0.463901   
     50. A(C   1,C   2,C   3)          119.9450         0.466641   
     51. A(C   3,C   2,H  26)          121.1809         0.361592   
     52. A(C   1,C   2,H  26)          118.8740         0.362121   
     53. A(C   2,C   3,C  14)          120.3691         0.463890   
     54. A(C   4,C   3,C  14)          120.4218         0.463742   
     55. A(C   2,C   3,C   4)          119.2091         0.465760   
     56. A(C   3,C   4,H  27)          120.9499         0.361437   
     57. A(C   3,C   4,C   5)          120.2959         0.466249   
     58. A(C   5,C   4,H  27)          118.7542         0.361897   
     59. A(C   6,C   5,H  28)          124.1320         0.360714   
     60. A(C   4,C   5,H  28)          113.6731         0.363133   
     61. A(C   4,C   5,C   6)          122.1949         0.463552   
     62. A(C   5,C   6,C   7)          122.3685         0.456011   
     63. A(C   7,C   6,C  15)          121.6367         0.452748   
     64. A(C   5,C   6,C  15)          115.9949         0.456945   
     65. A(C   6,C   7,C  17)          124.1749         0.453956   
     66. A(C   8,C   7,C  17)          118.7099         0.458404   
     67. A(C   6,C   7,C   8)          117.1152         0.456247   
     68. A(C   9,C   8,H  29)          114.6315         0.363030   
     69. A(C   7,C   8,H  29)          123.3013         0.360624   
     70. A(C   7,C   8,C   9)          122.0671         0.464016   
     71. A(C   8,C   9,H  30)          118.8514         0.362123   
     72. A(C   8,C   9,C  10)          119.9373         0.466515   
     73. A(C  10,C   9,H  30)          121.2112         0.361530   
     74. A(C  11,C  10,C  15)          120.2543         0.463819   
     75. A(C   9,C  10,C  15)          120.4892         0.463792   
     76. A(C   9,C  10,C  11)          119.2565         0.465723   
     77. A(C  12,C  11,H  31)          118.7891         0.361861   
     78. A(C  10,C  11,H  31)          120.9016         0.361474   
     79. A(C  10,C  11,C  12)          120.3093         0.466286   
     80. A(C  13,C  12,H  32)          124.2807         0.360614   
     81. A(C  11,C  12,C  13)          122.3853         0.463355   
     82. A(C  11,C  12,H  32)          113.3341         0.363130   
     83. A(C  12,C  13,C  14)          115.7569         0.456650   
     84. A(C   0,C  13,C  14)          121.6945         0.452246   
     85. A(C   0,C  13,C  12)          122.5486         0.455476   
     86. A(C  13,C  14,C  15)          123.3158         0.453939   
     87. A(C   3,C  14,C  15)          117.8252         0.458157   
     88. A(C   3,C  14,C  13)          118.8590         0.457621   
     89. A(C  10,C  15,C  14)          117.9783         0.458165   
     90. A(C   6,C  15,C  14)          123.2672         0.454072   
     91. A(C   6,C  15,C  10)          118.7544         0.457763   
     92. A(C  18,C  16,H  33)          111.9981         0.360640   
     93. A(C   0,C  16,H  33)          118.4868         0.359054   
     94. A(C   0,C  16,C  18)          129.5151         0.457125   
     95. A(C  19,C  17,H  34)          110.3998         0.360864   
     96. A(C   7,C  17,H  34)          120.2289         0.359069   
     97. A(C   7,C  17,C  19)          129.3710         0.458538   
     98. A(N  22,C  18,H  35)          115.4351         0.372387   
     99. A(C  16,C  18,H  35)          120.2496         0.360008   
    100. A(C  16,C  18,N  22)          124.3153         0.476202   
    101. A(C  17,C  19,H  36)          123.6110         0.360816   
    102. A(C  17,C  19,O  20)          120.7416         0.442087   
    103. A(O  20,C  19,H  36)          115.6180         0.347001   
    104. A(C  19,O  20,C  21)          114.8518         0.413068   
    105. A(H  38,C  21,H  39)          110.6125         0.283204   
    106. A(H  37,C  21,H  39)          108.8090         0.283244   
    107. A(O  20,C  21,H  39)          110.2268         0.335706   
    108. A(H  37,C  21,H  38)          109.0975         0.283219   
    109. A(O  20,C  21,H  38)          109.9085         0.335674   
    110. A(O  20,C  21,H  37)          108.1328         0.335725   
    111. A(O  23,N  22,O  24)          115.3544         0.432928   
    112. A(C  18,N  22,O  24)          124.3608         0.462391   
    113. A(C  18,N  22,O  23)          120.2848         0.461939   
    114. D(C   2,C   1,C   0,C  16)   -179.9351         0.037769   
    115. D(H  25,C   1,C   0,C  16)      0.0506         0.037769   
    116. D(H  25,C   1,C   0,C  13)   -179.9780         0.037769   
    117. D(C   2,C   1,C   0,C  13)      0.0363         0.037769   
    118. D(C   3,C   2,C   1,H  25)   -179.9554         0.041296   
    119. D(H  26,C   2,C   1,C   0)    179.9941         0.041296   
    120. D(C   3,C   2,C   1,C   0)      0.0316         0.041296   
    121. D(H  26,C   2,C   1,H  25)      0.0072         0.041296   
    122. D(C  14,C   3,C   2,C   1)     -0.0480         0.040525   
    123. D(C   4,C   3,C   2,H  26)     -0.0034         0.040525   
    124. D(C  14,C   3,C   2,H  26)    179.9903         0.040525   
    125. D(C   4,C   3,C   2,C   1)    179.9583         0.040525   
    126. D(H  27,C   4,C   3,C   2)      0.0360         0.040371   
    127. D(C   5,C   4,C   3,C   2)   -179.9430         0.040371   
    128. D(C   5,C   4,C   3,C  14)      0.0633         0.040371   
    129. D(H  27,C   4,C   3,C  14)   -179.9577         0.040371   
    130. D(H  28,C   5,C   4,H  27)      0.0251         0.041038   
    131. D(C   6,C   5,C   4,C   3)     -0.0078         0.041038   
    132. D(C   6,C   5,C   4,H  27)   -179.9872         0.041038   
    133. D(H  28,C   5,C   4,C   3)   -179.9954         0.041038   
    134. D(C  15,C   6,C   5,H  28)    179.9108         0.037665   
    135. D(C   7,C   6,C   5,H  28)     -0.0833         0.037665   
    136. D(C   7,C   6,C   5,C   4)    179.9304         0.037665   
    137. D(C  15,C   6,C   5,C   4)     -0.0755         0.037665   
    138. D(C  17,C   7,C   6,C  15)    179.8065         0.033734   
    139. D(C  17,C   7,C   6,C   5)     -0.1997         0.033734   
    140. D(C   8,C   7,C   6,C  15)     -0.0977         0.033734   
    141. D(C   8,C   7,C   6,C   5)    179.8961         0.033734   
    142. D(H  29,C   8,C   7,C   6)    179.9632         0.037899   
    143. D(C   9,C   8,C   7,C  17)   -179.8780         0.037899   
    144. D(C   9,C   8,C   7,C   6)      0.0316         0.037899   
    145. D(H  29,C   8,C   7,C  17)      0.0536         0.037899   
    146. D(H  30,C   9,C   8,H  29)      0.0378         0.041276   
    147. D(H  30,C   9,C   8,C   7)    179.9749         0.041276   
    148. D(C  10,C   9,C   8,H  29)   -179.8889         0.041276   
    149. D(C  10,C   9,C   8,C   7)      0.0482         0.041276   
    150. D(C  15,C  10,C   9,H  30)   -179.9891         0.040414   
    151. D(C  15,C  10,C   9,C   8)     -0.0642         0.040414   
    152. D(C  11,C  10,C   9,H  30)      0.0029         0.040414   
    153. D(C  11,C  10,C   9,C   8)    179.9279         0.040414   
    154. D(H  31,C  11,C  10,C  15)   -179.9801         0.040443   
    155. D(H  31,C  11,C  10,C   9)      0.0278         0.040443   
    156. D(C  12,C  11,C  10,C  15)      0.0507         0.040443   
    157. D(C  12,C  11,C  10,C   9)   -179.9414         0.040443   
    158. D(H  32,C  12,C  11,H  31)      0.0104         0.041004   
    159. D(H  32,C  12,C  11,C  10)    179.9802         0.041004   
    160. D(C  13,C  12,C  11,H  31)   -179.9901         0.041004   
    161. D(C  13,C  12,C  11,C  10)     -0.0203         0.041004   
    162. D(C  14,C  13,C  12,H  32)    179.9536         0.037505   
    163. D(C   0,C  13,C  12,H  32)     -0.0562         0.037505   
    164. D(C   0,C  13,C  12,C  11)    179.9443         0.037505   
    165. D(C  14,C  13,C   0,C  16)    179.8798         0.033408   
    166. D(C  14,C  13,C   0,C   1)     -0.0900         0.033408   
    167. D(C  14,C  13,C  12,C  11)     -0.0459         0.037505   
    168. D(C  12,C  13,C   0,C  16)     -0.1099         0.033408   
    169. D(C  12,C  13,C   0,C   1)    179.9204         0.033408   
    170. D(C   3,C  14,C  13,C  12)   -179.9343         0.034445   
    171. D(C   3,C  14,C  13,C   0)      0.0754         0.034445   
    172. D(C  15,C  14,C   3,C   4)     -0.0303         0.038472   
    173. D(C  15,C  14,C   3,C   2)    179.9761         0.038472   
    174. D(C  13,C  14,C   3,C   4)    179.9892         0.038472   
    175. D(C  15,C  14,C  13,C   0)   -179.9040         0.034445   
    176. D(C  13,C  14,C   3,C   2)     -0.0044         0.038472   
    177. D(C  15,C  14,C  13,C  12)      0.0863         0.034445   
    178. D(C  10,C  15,C  14,C  13)     -0.0588         0.034929   
    179. D(C   6,C  15,C  14,C  13)    179.9202         0.034929   
    180. D(C   6,C  15,C  14,C   3)     -0.0594         0.034929   
    181. D(C  14,C  15,C  10,C  11)     -0.0123         0.038480   
    182. D(C  14,C  15,C  10,C   9)    179.9796         0.038480   
    183. D(C   6,C  15,C  10,C  11)   -179.9923         0.038480   
    184. D(C   6,C  15,C  10,C   9)     -0.0003         0.038480   
    185. D(C  14,C  15,C   6,C   7)   -179.8957         0.034566   
    186. D(C  14,C  15,C   6,C   5)      0.1102         0.034566   
    187. D(C  10,C  15,C  14,C   3)    179.9617         0.034929   
    188. D(C  10,C  15,C   6,C   7)      0.0832         0.034566   
    189. D(C  10,C  15,C   6,C   5)   -179.9110         0.034566   
    190. D(H  33,C  16,C   0,C  13)      0.0252         0.035161   
    191. D(H  33,C  16,C   0,C   1)    179.9944         0.035161   
    192. D(C  18,C  16,C   0,C  13)   -179.9357         0.035161   
    193. D(C  18,C  16,C   0,C   1)      0.0334         0.035161   
    194. D(H  34,C  17,C   7,C   8)    179.7135         0.035682   
    195. D(H  34,C  17,C   7,C   6)     -0.1892         0.035682   
    196. D(C  19,C  17,C   7,C   8)     -0.0523         0.035682   
    197. D(C  19,C  17,C   7,C   6)   -179.9551         0.035682   
    198. D(H  35,C  18,C  16,H  33)   -179.9687         0.037198   
    199. D(H  35,C  18,C  16,C   0)     -0.0057         0.037198   
    200. D(N  22,C  18,C  16,H  33)      0.0019         0.037198   
    201. D(N  22,C  18,C  16,C   0)    179.9649         0.037198   
    202. D(H  36,C  19,C  17,H  34)    178.9675         0.038032   
    203. D(H  36,C  19,C  17,C   7)     -1.2483         0.038032   
    204. D(O  20,C  19,C  17,H  34)      1.0290         0.038032   
    205. D(O  20,C  19,C  17,C   7)   -179.1869         0.038032   
    206. D(C  21,O  20,C  19,H  36)    -35.1672         0.026565   
    207. D(C  21,O  20,C  19,C  17)    142.9289         0.026565   
    208. D(H  39,C  21,O  20,C  19)     64.3123         0.021415   
    209. D(H  38,C  21,O  20,C  19)    -57.8603         0.021415   
    210. D(H  37,C  21,O  20,C  19)   -176.8570         0.021415   
    211. D(O  24,N  22,C  18,H  35)    179.9557         0.074050   
    212. D(O  24,N  22,C  18,C  16)     -0.0162         0.074050   
    213. D(O  23,N  22,C  18,H  35)     -0.0615         0.074050   
    214. D(O  23,N  22,C  18,C  16)    179.9665         0.074050   
    -----------------------------------------------------------------

Number of atoms                         .... 40
Number of degrees of freedom            .... 214

         *************************************************************
         *                GEOMETRY OPTIMIZATION CYCLE   1            *
         *************************************************************
---------------------------------
CARTESIAN COORDINATES (ANGSTROEM)
---------------------------------
  C     -7.117698    3.174210   -0.265269
  C     -5.907082    3.766015   -0.239255
  C     -4.771567    3.065390   -0.158900
  C     -4.813823    1.728256   -0.101786
  C     -3.666934    1.040811   -0.022369
  C     -3.683753   -0.295329    0.034640
  C     -4.832470   -1.000677    0.015485
  C     -4.853659   -2.361261    0.071961
  C     -6.061339   -2.958151    0.047900
  C     -7.197568   -2.258131   -0.028531
  C     -7.156107   -0.920598   -0.084841
  C     -8.302702   -0.232908   -0.162631
  C     -8.285798    1.103269   -0.221093
  C     -7.138854    1.812574   -0.204738
  C     -5.994516    1.083437   -0.123814
  C     -5.977125   -0.272677   -0.063818
  C     -8.227386    3.950251   -0.349214
  C     -3.745562   -3.137174    0.147940
  C     -8.332449    5.294189   -0.415680
  C     -3.644524   -4.478967    0.207583
  O     -2.419775   -5.085551    0.297884
  C     -2.385021   -6.231339    1.119099
  N     -9.420823    5.916420   -0.492251
  O     -9.430902    7.229740   -0.552460
  O    -10.602112    5.343188   -0.518215
  H     -5.762356    4.855328   -0.281762
  H     -3.810226    3.608219   -0.141589
  H     -2.693041    1.561159   -0.002990
  H     -2.683878   -0.746904    0.097573
  H     -6.196763   -4.049150    0.087768
  H     -8.158280   -2.801960   -0.045153
  H     -9.276410   -0.753784   -0.180283
  H     -9.288308    1.548953   -0.282568
  H     -9.209081    3.459558   -0.369912
  H     -2.747358   -2.676574    0.164404
  H     -7.428738    5.922115   -0.405254
  H     -4.511966   -5.154728    0.221307
  H     -1.334727   -6.597603    1.158423
  H     -2.718456   -5.970102    2.148635
  H     -3.028467   -7.031944    0.690118

----------------------------
CARTESIAN COORDINATES (A.U.)
----------------------------
  NO LB      ZA    FRAG     MASS         X           Y           Z
   0 C     6.0000    0    12.011  -13.450500    5.998388   -0.501286
   1 C     6.0000    0    12.011  -11.162767    7.116737   -0.452126
   2 C     6.0000    0    12.011   -9.016955    5.792748   -0.300277
   3 C     6.0000    0    12.011   -9.096807    3.265931   -0.192348
   4 C     6.0000    0    12.011   -6.929501    1.966848   -0.042271
   5 C     6.0000    0    12.011   -6.961284   -0.558091    0.065460
   6 C     6.0000    0    12.011   -9.132045   -1.891005    0.029262
   7 C     6.0000    0    12.011   -9.172086   -4.462137    0.135987
   8 C     6.0000    0    12.011  -11.454271   -5.590095    0.090518
   9 C     6.0000    0    12.011  -13.601432   -4.267249   -0.053916
  10 C     6.0000    0    12.011  -13.523082   -1.739678   -0.160326
  11 C     6.0000    0    12.011  -15.689833   -0.440132   -0.307328
  12 C     6.0000    0    12.011  -15.657889    2.084876   -0.417805
  13 C     6.0000    0    12.011  -13.490479    3.425268   -0.386899
  14 C     6.0000    0    12.011  -11.327994    2.047399   -0.233975
  15 C     6.0000    0    12.011  -11.295129   -0.515285   -0.120599
  16 C     6.0000    0    12.011  -15.547506    7.464893   -0.659919
  17 C     6.0000    0    12.011   -7.078086   -5.928400    0.279566
  18 C     6.0000    0    12.011  -15.746047   10.004567   -0.785521
  19 C     6.0000    0    12.011   -6.887152   -8.464021    0.392275
  20 O     8.0000    0    15.999   -4.572712   -9.610299    0.562919
  21 C     6.0000    0    12.011   -4.507037  -11.775524    2.114791
  22 N     7.0000    0    14.007  -17.802775   11.180413   -0.930220
  23 O     8.0000    0    15.999  -17.821822   13.662229   -1.043998
  24 O     8.0000    0    15.999  -20.035088   10.097162   -0.979284
  25 H     1.0000    0     1.008  -10.889275    9.175240   -0.532453
  26 H     1.0000    0     1.008   -7.200284    6.818546   -0.267564
  27 H     1.0000    0     1.008   -5.089110    2.950163   -0.005650
  28 H     1.0000    0     1.008   -5.071794   -1.411444    0.184386
  29 H     1.0000    0     1.008  -11.710185   -7.651785    0.165857
  30 H     1.0000    0     1.008  -15.416915   -5.294937   -0.085327
  31 H     1.0000    0     1.008  -17.529874   -1.424445   -0.340685
  32 H     1.0000    0     1.008  -17.552358    2.927097   -0.533976
  33 H     1.0000    0     1.008  -17.402641    6.537617   -0.699032
  34 H     1.0000    0     1.008   -5.191754   -5.057992    0.310679
  35 H     1.0000    0     1.008  -14.038280   11.191175   -0.765819
  36 H     1.0000    0     1.008   -8.526380   -9.741024    0.418210
  37 H     1.0000    0     1.008   -2.522268  -12.467663    2.189102
  38 H     1.0000    0     1.008   -5.137137  -11.281858    4.060332
  39 H     1.0000    0     1.008   -5.722973  -13.288448    1.304134

--------------------------------
INTERNAL COORDINATES (ANGSTROEM)
--------------------------------
 C      0   0   0     0.000000000000     0.00000000     0.00000000
 C      1   0   0     1.347776311439     0.00000000     0.00000000
 C      2   1   0     1.336684941142   122.27990636     0.00000000
 C      3   2   1     1.339020131472   119.94503386     0.03155596
 C      4   3   2     1.339493212463   119.20914150   179.95831000
 C      5   4   3     1.337461402973   120.29589415   180.05698483
 C      6   5   4     1.348122198177   122.19486640     0.00000000
 C      7   6   5     1.361920457792   122.36846811   179.93037594
 C      8   7   6     1.347348353701   117.11519783   179.89613577
 C      9   8   7     1.336744567448   122.06711172     0.03159479
 C     10   9   8     1.339359681605   119.93733321     0.04821201
 C     11  10   9     1.339271785048   119.25647898   179.92788687
 C     12  11  10     1.337562157804   120.30930053   180.05863899
 C     13  12  11     1.348651774249   122.38525031     0.00000000
 C      4   3   2     1.345478627030   120.36905530   359.95202426
 C     11  10   9     1.345452394213   120.48918401   359.93582689
 C      1   2   3     1.356721730514   118.99364564   180.06491219
 C      8   7   6     1.354877394239   124.17486074   359.80029666
 C     17   1   2     1.349676002220   129.51511433     0.03341254
 C     18   8   7     1.346912922108   129.37096538   180.04492051
 O     20  18   8     1.369711112848   120.74157936   180.81312568
 C     21  20  18     1.410117746036   114.85183040   142.92893622
 N     19  17   1     1.256022491549   124.31532497   179.96492418
 O     23  19  17     1.314738047035   120.28478969   179.96654028
 O     23  19  17     1.313283197426   124.36081896     0.00000000
 H      2   1   3     1.099706902813   123.53266010   179.98567322
 H      3   2   1     1.104146508505   118.87401989   179.99414853
 H      5   4   3     1.104357352578   120.94987715     0.03598043
 H      6   5   4     1.098922453469   113.67313666   180.00458649
 H      9   8   7     1.100094511940   123.30132199   179.96320743
 H     10   9   8     1.104080531061   118.85142624   179.97494545
 H     12  11  10     1.104414174911   120.90163756     0.02784192
 H     13  12  11     1.098835612629   113.33408335   179.98021077
 H     17   1   2     1.097694447685   118.48680156   179.99435949
 H     18   8   7     1.099470167359   120.22892908   359.81078267
 H     19  17   1     1.100496858002   120.24961631     0.00000000
 H     20  18   8     1.099680362951   123.61097553   358.75170071
 H     22  21  20     1.113019847580   108.13276466   183.14303687
 H     22  21  20     1.113269080092   109.90847708   302.13965871
 H     22  21  20     1.113110874667   110.22682405    64.31225194

---------------------------
INTERNAL COORDINATES (A.U.)
---------------------------
 C      0   0   0     0.000000000000     0.00000000     0.00000000
 C      1   0   0     2.546928118407     0.00000000     0.00000000
 C      2   1   0     2.525968466094   122.27990636     0.00000000
 C      3   2   1     2.530381336290   119.94503386     0.03155596
 C      4   3   2     2.531275329802   119.20914150   179.95831000
 C      5   4   3     2.527435766309   120.29589415   180.05698483
 C      6   5   4     2.547581749615   122.19486640     0.00000000
 C      7   6   5     2.573656681412   122.36846811   179.93037594
 C      8   7   6     2.546119395485   117.11519783   179.89613577
 C      9   8   7     2.526081143484   122.06711172     0.03159479
 C     10   9   8     2.531022993050   119.93733321     0.04821201
 C     11  10   9     2.530856892628   119.25647898   179.92788687
 C     12  11  10     2.527626165346   120.30930053   180.05863899
 C     13  12  11     2.548582503358   122.38525031     0.00000000
 C      4   3   2     2.542586124131   120.36905530   359.95202426
 C     11  10   9     2.542536551292   120.48918401   359.93582689
 C      1   2   3     2.563832510612   118.99364564   180.06491219
 C      8   7   6     2.560347220152   124.17486074   359.80029666
 C     17   1   2     2.550518013722   129.51511433     0.03341254
 C     18   8   7     2.545296549024   129.37096538   180.04492051
 O     20  18   8     2.588378885870   120.74157936   180.81312568
 C     21  20  18     2.664736356590   114.85183040   142.92893622
 N     19  17   1     2.373538527074   124.31532497   179.96492418
 O     23  19  17     2.484494846743   120.28478969   179.96654028
 O     23  19  17     2.481745579415   124.36081896     0.00000000
 H      2   1   3     2.078144873899   123.53266010   179.98567322
 H      3   2   1     2.086534512799   118.87401989   179.99414853
 H      5   4   3     2.086932950356   120.94987715     0.03598043
 H      6   5   4     2.076662479474   113.67313666   180.00458649
 H      9   8   7     2.078877348997   123.30132199   179.96320743
 H     10   9   8     2.086409833501   118.85142624   179.97494545
 H     12  11  10     2.087040329002   120.90163756     0.02784192
 H     13  12  11     2.076498374068   113.33408335   179.98021077
 H     17   1   2     2.074341884850   118.48680156   179.99435949
 H     18   8   7     2.077697508725   120.22892908   359.81078267
 H     19  17   1     2.079637672865   120.24961631     0.00000000
 H     20  18   8     2.078094720829   123.61097553   358.75170071
 H     22  21  20     2.103302693546   108.13276466   183.14303687
 H     22  21  20     2.103773674737   109.90847708   302.13965871
 H     22  21  20     2.103474709810   110.22682405    64.31225194

---------------------
BASIS SET INFORMATION
---------------------
There are 4 groups of distinct atoms

 Group   1 Type C   : 7s4p1d contracted to 3s2p1d pattern {511/31/1}
 Group   2 Type O   : 7s4p1d contracted to 3s2p1d pattern {511/31/1}
 Group   3 Type N   : 7s4p1d contracted to 3s2p1d pattern {511/31/1}
 Group   4 Type H   : 4s1p contracted to 2s1p pattern {31/1}

Atom   0C    basis set group =>   1
Atom   1C    basis set group =>   1
Atom   2C    basis set group =>   1
Atom   3C    basis set group =>   1
Atom   4C    basis set group =>   1
Atom   5C    basis set group =>   1
Atom   6C    basis set group =>   1
Atom   7C    basis set group =>   1
Atom   8C    basis set group =>   1
Atom   9C    basis set group =>   1
Atom  10C    basis set group =>   1
Atom  11C    basis set group =>   1
Atom  12C    basis set group =>   1
Atom  13C    basis set group =>   1
Atom  14C    basis set group =>   1
Atom  15C    basis set group =>   1
Atom  16C    basis set group =>   1
Atom  17C    basis set group =>   1
Atom  18C    basis set group =>   1
Atom  19C    basis set group =>   1
Atom  20O    basis set group =>   2
Atom  21C    basis set group =>   1
Atom  22N    basis set group =>   3
Atom  23O    basis set group =>   2
Atom  24O    basis set group =>   2
Atom  25H    basis set group =>   4
Atom  26H    basis set group =>   4
Atom  27H    basis set group =>   4
Atom  28H    basis set group =>   4
Atom  29H    basis set group =>   4
Atom  30H    basis set group =>   4
Atom  31H    basis set group =>   4
Atom  32H    basis set group =>   4
Atom  33H    basis set group =>   4
Atom  34H    basis set group =>   4
Atom  35H    basis set group =>   4
Atom  36H    basis set group =>   4
Atom  37H    basis set group =>   4
Atom  38H    basis set group =>   4
Atom  39H    basis set group =>   4
---------------------------------
AUXILIARY/J BASIS SET INFORMATION
---------------------------------
There are 4 groups of distinct atoms

 Group   1 Type C   : 12s5p4d2f1g contracted to 6s4p3d1f1g pattern {711111/2111/211/2/1}
 Group   2 Type O   : 12s5p4d2f1g contracted to 6s4p3d1f1g pattern {711111/2111/211/2/1}
 Group   3 Type N   : 12s5p4d2f1g contracted to 6s4p3d1f1g pattern {711111/2111/211/2/1}
 Group   4 Type H   : 5s2p1d contracted to 3s1p1d pattern {311/2/1}

Atom   0C    basis set group =>   1
Atom   1C    basis set group =>   1
Atom   2C    basis set group =>   1
Atom   3C    basis set group =>   1
Atom   4C    basis set group =>   1
Atom   5C    basis set group =>   1
Atom   6C    basis set group =>   1
Atom   7C    basis set group =>   1
Atom   8C    basis set group =>   1
Atom   9C    basis set group =>   1
Atom  10C    basis set group =>   1
Atom  11C    basis set group =>   1
Atom  12C    basis set group =>   1
Atom  13C    basis set group =>   1
Atom  14C    basis set group =>   1
Atom  15C    basis set group =>   1
Atom  16C    basis set group =>   1
Atom  17C    basis set group =>   1
Atom  18C    basis set group =>   1
Atom  19C    basis set group =>   1
Atom  20O    basis set group =>   2
Atom  21C    basis set group =>   1
Atom  22N    basis set group =>   3
Atom  23O    basis set group =>   2
Atom  24O    basis set group =>   2
Atom  25H    basis set group =>   4
Atom  26H    basis set group =>   4
Atom  27H    basis set group =>   4
Atom  28H    basis set group =>   4
Atom  29H    basis set group =>   4
Atom  30H    basis set group =>   4
Atom  31H    basis set group =>   4
Atom  32H    basis set group =>   4
Atom  33H    basis set group =>   4
Atom  34H    basis set group =>   4
Atom  35H    basis set group =>   4
Atom  36H    basis set group =>   4
Atom  37H    basis set group =>   4
Atom  38H    basis set group =>   4
Atom  39H    basis set group =>   4


           ************************************************************
           *        Program running with 8 parallel MPI-processes     *
           *              working on a common directory               *
           ************************************************************
------------------------------------------------------------------------------
                           ORCA GTO INTEGRAL CALCULATION
                           -- RI-GTO INTEGRALS CHOSEN --
------------------------------------------------------------------------------
------------------------------------------------------------------------------
                   ___                                                        
                  /   \      - P O W E R E D   B Y -                         
                 /     \                                                     
                 |  |  |   _    _      __       _____    __    __             
                 |  |  |  | |  | |    /  \     |  _  \  |  |  /  |          
                  \  \/   | |  | |   /    \    | | | |  |  | /  /          
                 / \  \   | |__| |  /  /\  \   | |_| |  |  |/  /          
                |  |  |   |  __  | /  /__\  \  |    /   |      \           
                |  |  |   | |  | | |   __   |  |    \   |  |\   \          
                \     /   | |  | | |  |  |  |  | |\  \  |  | \   \       
                 \___/    |_|  |_| |__|  |__|  |_| \__\ |__|  \__/        
                                                                              
                      - O R C A' S   B I G   F R I E N D -                    
                                      &                                       
                       - I N T E G R A L  F E E D E R -                       
                                                                              
 v1 FN, 2020, v2 2021                                                         
------------------------------------------------------------------------------


Reading SHARK input file NO2_OMe.SHARKINP.tmp ... ok
----------------------
SHARK INTEGRAL PACKAGE
----------------------

Number of atoms                             ...     40
Number of basis functions                   ...    425
Number of shells                            ...    195
Maximum angular momentum                    ...      2
Integral batch strategy                     ... SHARK/LIBINT Hybrid
RI-J (if used) integral strategy            ... SPLIT-RIJ (Revised 2003 algorithm where possible)
Printlevel                                  ...      1
Contraction scheme used                     ... SEGMENTED contraction
Coulomb Range Separation                    ... NOT USED
Exchange Range Separation                   ... NOT USED
Finite Nucleus Model                        ... NOT USED
Auxiliary Coulomb fitting basis             ... AVAILABLE
   # of basis functions in Aux-J            ...   1390
   # of shells in Aux-J                     ...    450
   Maximum angular momentum in Aux-J        ...      4
Auxiliary J/K fitting basis                 ... NOT available
Auxiliary Correlation fitting basis         ... NOT available
Auxiliary 'external' fitting basis          ... NOT available
Integral threshold                          ...     2.500000e-11
Primitive cut-off                           ...     2.500000e-12
Primitive pair pre-selection threshold      ...     2.500000e-12

Calculating pre-screening integrals         ... done (  0.0 sec) Dimension = 195
Organizing shell pair data                  ... done (  5.3 sec)
Shell pair information
Total number of shell pairs                 ...     19110
Shell pairs after pre-screening             ...     12624
Total number of primitive shell pairs       ...     70870
Primitive shell pairs kept                  ...     30046
          la=0 lb=0:   3731 shell pairs
          la=1 lb=0:   4626 shell pairs
          la=1 lb=1:   1496 shell pairs
          la=2 lb=0:   1576 shell pairs
          la=2 lb=1:   1013 shell pairs
          la=2 lb=2:    182 shell pairs

Calculating one electron integrals          ... done (  0.0 sec)
Calculating RI/J V-Matrix + Cholesky decomp.... done (  1.8 sec)
Calculating Nuclear repulsion               ... done (  0.0 sec) ENN=   1979.694743168463 Eh

SHARK setup successfully completed in   8.1 seconds

Maximum memory used throughout the entire GTOINT-calculation: 23.6 MB


           ************************************************************
           *        Program running with 8 parallel MPI-processes     *
           *              working on a common directory               *
           ************************************************************
-------------------------------------------------------------------------------
                                 ORCA SCF
-------------------------------------------------------------------------------

------------
SCF SETTINGS
------------
Hamiltonian:
 Density Functional     Method          .... DFT(GTOs)
 Exchange Functional    Exchange        .... B88
   X-Alpha parameter    XAlpha          ....  0.666667
   Becke's b parameter  XBeta           ....  0.004200
 Correlation Functional Correlation     .... LYP
 LDA part of GGA corr.  LDAOpt          .... VWN-5
 Gradients option       PostSCFGGA      .... off
 Hybrid DFT is turned on
   Fraction HF Exchange ScalHFX         ....  0.200000
   Scaling of DF-GGA-X  ScalDFX         ....  0.720000
   Scaling of DF-GGA-C  ScalDFC         ....  0.810000
   Scaling of DF-LDA-C  ScalLDAC        ....  1.000000
   Perturbative correction              ....  0.000000
   Density functional embedding theory  .... OFF
   NL short-range parameter             ....  4.800000
 RI-approximation to the Coulomb term is turned on
   Number of AuxJ basis functions       .... 1390
   RIJ-COSX (HFX calculated with COS-X)).... on


General Settings:
 Integral files         IntName         .... NO2_OMe
 Hartree-Fock type      HFTyp           .... RHF
 Total Charge           Charge          ....    0
 Multiplicity           Mult            ....    1
 Number of Electrons    NEL             ....  172
 Basis Dimension        Dim             ....  425
 Nuclear Repulsion      ENuc            ....   1979.6947431685 Eh

Convergence Acceleration:
 DIIS                   CNVDIIS         .... on
   Start iteration      DIISMaxIt       ....    12
   Startup error        DIISStart       ....  0.200000
   # of expansion vecs  DIISMaxEq       ....     5
   Bias factor          DIISBfac        ....   1.050
   Max. coefficient     DIISMaxC        ....  10.000
 Trust-Rad. Augm. Hess. CNVTRAH         .... auto
   Auto Start mean grad. ratio tolernc. ....  1.125000
   Auto Start start iteration           ....    20
   Auto Start num. interpolation iter.  ....    10
   Max. Number of Micro iterations      ....    16
   Max. Number of Macro iterations      .... Maxiter - #DIIS iter
   Number of Davidson start vectors     ....     2
   Converg. threshold I  (grad. norm)   ....   1.000e-05
   Converg. threshold II (energy diff.) ....   1.000e-08
   Grad. Scal. Fac. for Micro threshold ....   0.100
   Minimum threshold for Micro iter.    ....   0.010
   NR start threshold (gradient norm)   ....   0.001
   Initial trust radius                 ....   0.400
   Minimum AH scaling param. (alpha)    ....   1.000
   Maximum AH scaling param. (alpha)    .... 1000.000
   Orbital update algorithm             .... Taylor
   White noise on init. David. guess    .... on
   Maximum white noise                  ....   0.010
   Quad. conv. algorithm                .... NR
 SOSCF                  CNVSOSCF        .... on
   Start iteration      SOSCFMaxIt      ....   150
   Startup grad/error   SOSCFStart      ....  0.003300
 Level Shifting         CNVShift        .... on
   Level shift para.    LevelShift      ....    0.2500
   Turn off err/grad.   ShiftErr        ....    0.0010
 Zerner damping         CNVZerner       .... off
 Static damping         CNVDamp         .... on
   Fraction old density DampFac         ....    0.7000
   Max. Damping (<1)    DampMax         ....    0.9800
   Min. Damping (>=0)   DampMin         ....    0.0000
   Turn off err/grad.   DampErr         ....    0.1000
 Fernandez-Rico         CNVRico         .... off

SCF Procedure:
 Maximum # iterations   MaxIter         ....   125
 SCF integral mode      SCFMode         .... Direct
   Integral package                     .... SHARK and LIBINT hybrid scheme
 Reset frequency        DirectResetFreq ....    20
 Integral Threshold     Thresh          ....  2.500e-11 Eh
 Primitive CutOff       TCut            ....  2.500e-12 Eh

Convergence Tolerance:
 Convergence Check Mode ConvCheckMode   .... Total+1el-Energy
 Convergence forced     ConvForced      .... 0
 Energy Change          TolE            ....  1.000e-08 Eh
 1-El. energy change                    ....  1.000e-05 Eh
 Orbital Gradient       TolG            ....  1.000e-05
 Orbital Rotation angle TolX            ....  1.000e-05
 DIIS Error             TolErr          ....  5.000e-07


Diagonalization of the overlap matrix:
Smallest eigenvalue                        ... 1.181e-04
Time for diagonalization                   ...    0.032 sec
Threshold for overlap eigenvalues          ... 1.000e-08
Number of eigenvalues below threshold      ... 0
Time for construction of square roots      ...    0.049 sec
Total time needed                          ...    0.083 sec

Time for model grid setup =    0.355 sec

------------------------------
INITIAL GUESS: MODEL POTENTIAL
------------------------------
Loading Hartree-Fock densities                     ... done
Calculating cut-offs                               ... done
Initializing the effective Hamiltonian             ... done
Setting up the integral package (SHARK)            ... done
Starting the Coulomb interaction                   ... done (   0.2 sec)
Reading the grid                                   ... done
Mapping shells                                     ... done
Starting the XC term evaluation                    ... done (   0.1 sec)
  promolecular density results
     # of electrons  =    171.985828619
     EX              =   -144.091144122
     EC              =     -5.936809420
     EX+EC           =   -150.027953541
Transforming the Hamiltonian                       ... done (   0.0 sec)
Diagonalizing the Hamiltonian                      ... done (   0.0 sec)
Back transforming the eigenvectors                 ... done (   0.0 sec)
Now organizing SCF variables                       ... done
                      ------------------
                      INITIAL GUESS DONE (   0.8 sec)
                      ------------------
-------------------
DFT GRID GENERATION
-------------------

General Integration Accuracy     IntAcc      ... 4.388
Radial Grid Type                 RadialGrid  ... OptM3 with GC (2021)
Angular Grid (max. ang.)         AngularGrid ... 4 (Lebedev-302)
Angular grid pruning method      GridPruning ... 4 (adaptive)
Weight generation scheme         WeightScheme... Becke
Basis function cutoff            BFCut       ... 1.0000e-11
Integration weight cutoff        WCut        ... 1.0000e-14
Angular grids for H and He will be reduced by one unit
Partially contracted basis set               ... off
Rotationally invariant grid construction     ... off

Total number of grid points                  ...   196548
Total number of batches                      ...     3089
Average number of points per batch           ...       63
Average number of grid points per atom       ...     4914
Time for grid setup =    2.699 sec

--------------------
COSX GRID GENERATION
--------------------

GRIDX 1
-------
General Integration Accuracy     IntAcc      ... 3.816
Radial Grid Type                 RadialGrid  ... OptM3 with GC (2021)
Angular Grid (max. ang.)         AngularGrid ... 1 (Lebedev-50)
Angular grid pruning method      GridPruning ... 4 (adaptive)
Weight generation scheme         WeightScheme... Becke
Basis function cutoff            BFCut       ... 1.0000e-11
Integration weight cutoff        WCut        ... 1.0000e-14
Angular grids for H and He will be reduced by one unit
Partially contracted basis set               ... on
Rotationally invariant grid construction     ... off

Total number of grid points                  ...    25010
Total number of batches                      ...      408
Average number of points per batch           ...       61
Average number of grid points per atom       ...      625
UseSFitting                                  ... on

GRIDX 2
-------
General Integration Accuracy     IntAcc      ... 4.020
Radial Grid Type                 RadialGrid  ... OptM3 with GC (2021)
Angular Grid (max. ang.)         AngularGrid ... 2 (Lebedev-110)
Angular grid pruning method      GridPruning ... 4 (adaptive)
Weight generation scheme         WeightScheme... Becke
Basis function cutoff            BFCut       ... 1.0000e-11
Integration weight cutoff        WCut        ... 1.0000e-14
Angular grids for H and He will be reduced by one unit
Partially contracted basis set               ... on
Rotationally invariant grid construction     ... off

Total number of grid points                  ...    54795
Total number of batches                      ...      876
Average number of points per batch           ...       62
Average number of grid points per atom       ...     1370
UseSFitting                                  ... on

GRIDX 3
-------
General Integration Accuracy     IntAcc      ... 4.338
Radial Grid Type                 RadialGrid  ... OptM3 with GC (2021)
Angular Grid (max. ang.)         AngularGrid ... 3 (Lebedev-194)
Angular grid pruning method      GridPruning ... 4 (adaptive)
Weight generation scheme         WeightScheme... Becke
Basis function cutoff            BFCut       ... 1.0000e-11
Integration weight cutoff        WCut        ... 1.0000e-14
Angular grids for H and He will be reduced by one unit
Partially contracted basis set               ... on
Rotationally invariant grid construction     ... off

Total number of grid points                  ...   120260
Total number of batches                      ...     1894
Average number of points per batch           ...       63
Average number of grid points per atom       ...     3006
UseSFitting                                  ... on

Time for X-Grid setup             =    2.456 sec

--------------
SCF ITERATIONS
--------------
ITER       Energy         Delta-E        Max-DP      RMS-DP      [F,P]     Damp
               ***  Starting incremental Fock matrix formation  ***
  0  -1087.4408210273   0.000000000000 0.19961527  0.00345645  0.2649986 0.7000
  1  -1087.6973343630  -0.256513335750 0.12313005  0.00229688  0.0794560 0.7000
                               ***Turning on DIIS***
  2  -1087.8024240948  -0.105089731720 0.23080955  0.00447961  0.0370991 0.0000
  3  -1087.9725638300  -0.170139735272 0.08161865  0.00106113  0.0478679 0.0000
  4  -1088.0051209585  -0.032557128479 0.02170291  0.00028027  0.0286009 0.0000
  5  -1088.0078255704  -0.002704611873 0.01253828  0.00015328  0.0082705 0.0000
                      *** Initiating the SOSCF procedure ***
                           *** Shutting down DIIS ***
                      *** Re-Reading the Fockian *** 
                      *** Removing any level shift *** 
ITER      Energy       Delta-E        Grad      Rot      Max-DP    RMS-DP
  6  -1088.00804067  -0.0002150962  0.000761  0.000761  0.002581  0.000047
               *** Restarting incremental Fock matrix formation ***
  7  -1088.00798898   0.0000516906  0.000419  0.004814  0.001972  0.000047
  8  -1088.00799898  -0.0000100036  0.000373  0.002021  0.001695  0.000032
  9  -1088.00800139  -0.0000024135  0.000281  0.002087  0.000962  0.000021
 10  -1088.00800343  -0.0000020323  0.000368  0.001279  0.001307  0.000018
 11  -1088.00800258   0.0000008455  0.000331  0.001048  0.000967  0.000015
 12  -1088.00800487  -0.0000022863  0.000095  0.000585  0.000365  0.000009
 13  -1088.00800454   0.0000003228  0.000135  0.000632  0.000321  0.000007
 14  -1088.00800535  -0.0000008080  0.000043  0.000161  0.000166  0.000003
 15  -1088.00800529   0.0000000618  0.000047  0.000121  0.000090  0.000002
 16  -1088.00800539  -0.0000000992  0.000005  0.000032  0.000052  0.000001
 17  -1088.00800537   0.0000000175  0.000009  0.000028  0.000033  0.000000
                  ***Gradient check signals convergence***
              ***Rediagonalizing the Fockian in SOSCF/NRSCF***

               *****************************************************
               *                     SUCCESS                       *
               *           SCF CONVERGED AFTER  18 CYCLES          *
               *****************************************************

Old exchange energy                            =    -29.192015086 Eh
New exchange energy                            =    -29.192058845 Eh
Exchange energy change after final integration =     -0.000043759 Eh
Total energy after final integration           =  -1088.008049153 Eh
Final COS-X integration done in                =    11.040 sec

----------------
TOTAL SCF ENERGY
----------------

Total Energy       :        -1088.00804915 Eh          -29606.20417 eV

Components:
Nuclear Repulsion  :         1979.69474317 Eh           53870.23267 eV
Electronic Energy  :        -3067.70279232 Eh          -83476.43684 eV
One Electron Energy:        -5409.00843261 Eh         -147186.60227 eV
Two Electron Energy:         2341.30564029 Eh           63710.16543 eV
Max COSX asymmetry :            0.00000291 Eh               0.00008 eV

Virial components:
Potential Energy   :        -2169.54584313 Eh          -59036.34374 eV
Kinetic Energy     :         1081.53779398 Eh           29430.13957 eV
Virial Ratio       :            2.00598246


DFT components:
N(Alpha)           :       86.000145428962 electrons
N(Beta)            :       86.000145428962 electrons
N(Total)           :      172.000290857924 electrons
E(X)               :     -116.047521505276 Eh       
E(C)               :       -6.979503445433 Eh       
E(XC)              :     -123.027024950710 Eh       
DFET-embed. en.    :        0.000000000000 Eh       

---------------
SCF CONVERGENCE
---------------

  Last Energy change         ...   -2.2840e-08  Tolerance :   1.0000e-08
  Last MAX-Density change    ...    3.1433e-15  Tolerance :   1.0000e-07
  Last RMS-Density change    ...    4.5378e-17  Tolerance :   5.0000e-09
  Last Orbital Gradient      ...    9.5690e-07  Tolerance :   1.0000e-05
  Last Orbital Rotation      ...    7.5501e-06  Tolerance :   1.0000e-05

             **** THE GBW FILE WAS UPDATED (NO2_OMe.gbw) ****
             **** DENSITY NO2_OMe.scfp WAS UPDATED ****
             **** ENERGY FILE WAS UPDATED (NO2_OMe.en.tmp) ****
             **** THE GBW FILE WAS UPDATED (NO2_OMe.gbw) ****
             **** DENSITY NO2_OMe.scfp WAS UPDATED ****
----------------
ORBITAL ENERGIES
----------------

  NO   OCC          E(Eh)            E(eV) 
   0   2.0000     -19.179084      -521.8894 
   1   2.0000     -19.112227      -520.0701 
   2   2.0000     -19.109367      -519.9923 
   3   2.0000     -14.503285      -394.6545 
   4   2.0000     -10.263353      -279.2800 
   5   2.0000     -10.261870      -279.2397 
   6   2.0000     -10.223663      -278.2000 
   7   2.0000     -10.215226      -277.9704 
   8   2.0000     -10.203165      -277.6422 
   9   2.0000     -10.202338      -277.6197 
  10   2.0000     -10.198810      -277.5237 
  11   2.0000     -10.198260      -277.5088 
  12   2.0000     -10.197758      -277.4951 
  13   2.0000     -10.195922      -277.4451 
  14   2.0000     -10.195737      -277.4401 
  15   2.0000     -10.194603      -277.4093 
  16   2.0000     -10.193976      -277.3922 
  17   2.0000     -10.193765      -277.3865 
  18   2.0000     -10.193443      -277.3777 
  19   2.0000     -10.193373      -277.3758 
  20   2.0000     -10.192750      -277.3588 
  21   2.0000     -10.192022      -277.3390 
  22   2.0000     -10.191632      -277.3284 
  23   2.0000     -10.190656      -277.3019 
  24   2.0000     -10.185674      -277.1663 
  25   2.0000      -1.130121       -30.7522 
  26   2.0000      -1.070659       -29.1341 
  27   2.0000      -0.950328       -25.8597 
  28   2.0000      -0.940696       -25.5976 
  29   2.0000      -0.908545       -24.7228 
  30   2.0000      -0.878364       -23.9015 
  31   2.0000      -0.867829       -23.6148 
  32   2.0000      -0.845814       -23.0158 
  33   2.0000      -0.816996       -22.2316 
  34   2.0000      -0.800342       -21.7784 
  35   2.0000      -0.776410       -21.1272 
  36   2.0000      -0.760754       -20.7012 
  37   2.0000      -0.751462       -20.4483 
  38   2.0000      -0.715949       -19.4820 
  39   2.0000      -0.694164       -18.8892 
  40   2.0000      -0.666620       -18.1396 
  41   2.0000      -0.659020       -17.9328 
  42   2.0000      -0.644002       -17.5242 
  43   2.0000      -0.635073       -17.2812 
  44   2.0000      -0.598218       -16.2783 
  45   2.0000      -0.581198       -15.8152 
  46   2.0000      -0.562652       -15.3105 
  47   2.0000      -0.558893       -15.2083 
  48   2.0000      -0.545757       -14.8508 
  49   2.0000      -0.532842       -14.4994 
  50   2.0000      -0.523589       -14.2476 
  51   2.0000      -0.515932       -14.0392 
  52   2.0000      -0.511035       -13.9060 
  53   2.0000      -0.492516       -13.4020 
  54   2.0000      -0.488670       -13.2974 
  55   2.0000      -0.484252       -13.1772 
  56   2.0000      -0.479589       -13.0503 
  57   2.0000      -0.470231       -12.7956 
  58   2.0000      -0.468697       -12.7539 
  59   2.0000      -0.463416       -12.6102 
  60   2.0000      -0.456542       -12.4231 
  61   2.0000      -0.452946       -12.3253 
  62   2.0000      -0.443561       -12.0699 
  63   2.0000      -0.422426       -11.4948 
  64   2.0000      -0.420551       -11.4438 
  65   2.0000      -0.416460       -11.3324 
  66   2.0000      -0.414012       -11.2658 
  67   2.0000      -0.406395       -11.0586 
  68   2.0000      -0.392907       -10.6915 
  69   2.0000      -0.389937       -10.6107 
  70   2.0000      -0.388134       -10.5617 
  71   2.0000      -0.377107       -10.2616 
  72   2.0000      -0.366878        -9.9832 
  73   2.0000      -0.358305        -9.7500 
  74   2.0000      -0.349573        -9.5124 
  75   2.0000      -0.339157        -9.2289 
  76   2.0000      -0.332602        -9.0506 
  77   2.0000      -0.321564        -8.7502 
  78   2.0000      -0.301348        -8.2001 
  79   2.0000      -0.282626        -7.6906 
  80   2.0000      -0.274048        -7.4572 
  81   2.0000      -0.260611        -7.0916 
  82   2.0000      -0.251720        -6.8497 
  83   2.0000      -0.250181        -6.8078 
  84   2.0000      -0.231187        -6.2909 
  85   2.0000      -0.203997        -5.5510 
  86   0.0000      -0.116804        -3.1784 
  87   0.0000      -0.067392        -1.8338 
  88   0.0000      -0.042850        -1.1660 
  89   0.0000      -0.023757        -0.6465 
  90   0.0000      -0.007680        -0.2090 
  91   0.0000       0.029925         0.8143 
  92   0.0000       0.042122         1.1462 
  93   0.0000       0.042888         1.1670 
  94   0.0000       0.050419         1.3720 
  95   0.0000       0.054728         1.4892 
  96   0.0000       0.063661         1.7323 
  97   0.0000       0.072831         1.9818 
  98   0.0000       0.088850         2.4177 
  99   0.0000       0.097169         2.6441 
 100   0.0000       0.100957         2.7472 
 101   0.0000       0.105749         2.8776 
 102   0.0000       0.110150         2.9973 
 103   0.0000       0.115280         3.1369 
 104   0.0000       0.118884         3.2350 
 105   0.0000       0.123077         3.3491 
 106   0.0000       0.131035         3.5656 
 107   0.0000       0.168461         4.5841 
 108   0.0000       0.181170         4.9299 
 109   0.0000       0.185804         5.0560 
 110   0.0000       0.197797         5.3823 
 111   0.0000       0.202618         5.5135 
 112   0.0000       0.216617         5.8944 
 113   0.0000       0.221165         6.0182 
 114   0.0000       0.225197         6.1279 
 115   0.0000       0.234399         6.3783 
 116   0.0000       0.238807         6.4983 
 117   0.0000       0.242743         6.6054 
 118   0.0000       0.256228         6.9723 
 119   0.0000       0.266412         7.2494 
 120   0.0000       0.270501         7.3607 
 121   0.0000       0.274564         7.4713 
 122   0.0000       0.278791         7.5863 
 123   0.0000       0.279305         7.6003 
 124   0.0000       0.291473         7.9314 
 125   0.0000       0.296343         8.0639 
 126   0.0000       0.310491         8.4489 
 127   0.0000       0.317672         8.6443 
 128   0.0000       0.327010         8.8984 
 129   0.0000       0.332421         9.0456 
 130   0.0000       0.337027         9.1710 
 131   0.0000       0.340831         9.2745 
 132   0.0000       0.357360         9.7243 
 133   0.0000       0.361972         9.8498 
 134   0.0000       0.366831         9.9820 
 135   0.0000       0.373461        10.1624 
 136   0.0000       0.391551        10.6547 
 137   0.0000       0.396443        10.7878 
 138   0.0000       0.408430        11.1139 
 139   0.0000       0.416387        11.3305 
 140   0.0000       0.418429        11.3860 
 141   0.0000       0.424580        11.5534 
 142   0.0000       0.425256        11.5718 
 143   0.0000       0.434376        11.8200 
 144   0.0000       0.440618        11.9898 
 145   0.0000       0.441912        12.0250 
 146   0.0000       0.446136        12.1400 
 147   0.0000       0.453925        12.3519 
 148   0.0000       0.460498        12.5308 
 149   0.0000       0.467461        12.7203 
 150   0.0000       0.474489        12.9115 
 151   0.0000       0.476346        12.9620 
 152   0.0000       0.480850        13.0846 
 153   0.0000       0.488925        13.3043 
 154   0.0000       0.489962        13.3326 
 155   0.0000       0.497505        13.5378 
 156   0.0000       0.499636        13.5958 
 157   0.0000       0.514631        14.0038 
 158   0.0000       0.521202        14.1826 
 159   0.0000       0.526949        14.3390 
 160   0.0000       0.533362        14.5135 
 161   0.0000       0.534787        14.5523 
 162   0.0000       0.543341        14.7851 
 163   0.0000       0.555583        15.1182 
 164   0.0000       0.563707        15.3393 
 165   0.0000       0.575805        15.6685 
 166   0.0000       0.583427        15.8759 
 167   0.0000       0.585794        15.9403 
 168   0.0000       0.596619        16.2348 
 169   0.0000       0.599074        16.3016 
 170   0.0000       0.601311        16.3625 
 171   0.0000       0.605117        16.4661 
 172   0.0000       0.611516        16.6402 
 173   0.0000       0.622369        16.9355 
 174   0.0000       0.628676        17.1072 
 175   0.0000       0.633197        17.2302 
 176   0.0000       0.635717        17.2987 
 177   0.0000       0.636772        17.3274 
 178   0.0000       0.642062        17.4714 
 179   0.0000       0.644106        17.5270 
 180   0.0000       0.648281        17.6406 
 181   0.0000       0.652249        17.7486 
 182   0.0000       0.661854        18.0100 
 183   0.0000       0.665908        18.1203 
 184   0.0000       0.668998        18.2044 
 185   0.0000       0.671037        18.2599 
 186   0.0000       0.684404        18.6236 
 187   0.0000       0.692364        18.8402 
 188   0.0000       0.713277        19.4093 
 189   0.0000       0.725597        19.7445 
 190   0.0000       0.727448        19.7949 
 191   0.0000       0.732222        19.9248 
 192   0.0000       0.742020        20.1914 
 193   0.0000       0.743696        20.2370 
 194   0.0000       0.755310        20.5530 
 195   0.0000       0.760199        20.6861 
 196   0.0000       0.763095        20.7649 
 197   0.0000       0.780308        21.2332 
 198   0.0000       0.791663        21.5422 
 199   0.0000       0.797613        21.7042 
 200   0.0000       0.810651        22.0589 
 201   0.0000       0.822664        22.3858 
 202   0.0000       0.826323        22.4854 
 203   0.0000       0.828822        22.5534 
 204   0.0000       0.839142        22.8342 
 205   0.0000       0.844243        22.9730 
 206   0.0000       0.864109        23.5136 
 207   0.0000       0.866971        23.5915 
 208   0.0000       0.877630        23.8815 
 209   0.0000       0.879613        23.9355 
 210   0.0000       0.896391        24.3920 
 211   0.0000       0.904931        24.6244 
 212   0.0000       0.910670        24.7806 
 213   0.0000       0.931013        25.3342 
 214   0.0000       0.939015        25.5519 
 215   0.0000       0.939186        25.5566 
 216   0.0000       0.946310        25.7504 
 217   0.0000       0.964216        26.2376 
 218   0.0000       0.976183        26.5633 
 219   0.0000       0.990155        26.9435 
 220   0.0000       1.016412        27.6580 
 221   0.0000       1.019049        27.7297 
 222   0.0000       1.026745        27.9391 
 223   0.0000       1.034310        28.1450 
 224   0.0000       1.053868        28.6772 
 225   0.0000       1.074980        29.2517 
 226   0.0000       1.082242        29.4493 
 227   0.0000       1.098489        29.8914 
 228   0.0000       1.103741        30.0343 
 229   0.0000       1.129582        30.7375 
 230   0.0000       1.137618        30.9562 
 231   0.0000       1.143176        31.1074 
 232   0.0000       1.153334        31.3838 
 233   0.0000       1.167695        31.7746 
 234   0.0000       1.171712        31.8839 
 235   0.0000       1.180848        32.1325 
 236   0.0000       1.191346        32.4182 
 237   0.0000       1.202430        32.7198 
 238   0.0000       1.203803        32.7571 
 239   0.0000       1.212711        32.9996 
 240   0.0000       1.220435        33.2097 
 241   0.0000       1.221438        33.2370 
 242   0.0000       1.230831        33.4926 
 243   0.0000       1.232831        33.5470 
 244   0.0000       1.239629        33.7320 
 245   0.0000       1.243832        33.8464 
 246   0.0000       1.248593        33.9760 
 247   0.0000       1.257639        34.2221 
 248   0.0000       1.264209        34.4009 
 249   0.0000       1.270149        34.5625 
 250   0.0000       1.276973        34.7482 
 251   0.0000       1.284358        34.9492 
 252   0.0000       1.301351        35.4116 
 253   0.0000       1.304308        35.4920 
 254   0.0000       1.312097        35.7040 
 255   0.0000       1.329278        36.1715 
 256   0.0000       1.348262        36.6881 
 257   0.0000       1.350386        36.7459 
 258   0.0000       1.356004        36.8987 
 259   0.0000       1.356322        36.9074 
 260   0.0000       1.368189        37.2303 
 261   0.0000       1.372357        37.3437 
 262   0.0000       1.384585        37.6765 
 263   0.0000       1.406040        38.2603 
 264   0.0000       1.409159        38.3452 
 265   0.0000       1.422246        38.7013 
 266   0.0000       1.445024        39.3211 
 267   0.0000       1.460073        39.7306 
 268   0.0000       1.465312        39.8732 
 269   0.0000       1.484713        40.4011 
 270   0.0000       1.485138        40.4127 
 271   0.0000       1.504404        40.9369 
 272   0.0000       1.516941        41.2781 
 273   0.0000       1.534751        41.7627 
 274   0.0000       1.564125        42.5620 
 275   0.0000       1.643945        44.7340 
 276   0.0000       1.651325        44.9348 
 277   0.0000       1.668408        45.3997 
 278   0.0000       1.675117        45.5823 
 279   0.0000       1.678409        45.6718 
 280   0.0000       1.681151        45.7464 
 281   0.0000       1.694218        46.1020 
 282   0.0000       1.704827        46.3907 
 283   0.0000       1.717086        46.7243 
 284   0.0000       1.718045        46.7504 
 285   0.0000       1.724824        46.9348 
 286   0.0000       1.730922        47.1008 
 287   0.0000       1.731057        47.1044 
 288   0.0000       1.744049        47.4580 
 289   0.0000       1.749022        47.5933 
 290   0.0000       1.753285        47.7093 
 291   0.0000       1.760576        47.9077 
 292   0.0000       1.766239        48.0618 
 293   0.0000       1.772981        48.2453 
 294   0.0000       1.776840        48.3503 
 295   0.0000       1.781938        48.4890 
 296   0.0000       1.792736        48.7828 
 297   0.0000       1.795541        48.8592 
 298   0.0000       1.800484        48.9937 
 299   0.0000       1.807204        49.1765 
 300   0.0000       1.813739        49.3543 
 301   0.0000       1.815333        49.3977 
 302   0.0000       1.825840        49.6836 
 303   0.0000       1.833670        49.8967 
 304   0.0000       1.847609        50.2760 
 305   0.0000       1.859216        50.5919 
 306   0.0000       1.867858        50.8270 
 307   0.0000       1.882190        51.2170 
 308   0.0000       1.894050        51.5397 
 309   0.0000       1.903228        51.7895 
 310   0.0000       1.911028        52.0017 
 311   0.0000       1.924009        52.3549 
 312   0.0000       1.927198        52.4417 
 313   0.0000       1.946135        52.9570 
 314   0.0000       1.947485        52.9938 
 315   0.0000       1.963606        53.4324 
 316   0.0000       1.970909        53.6312 
 317   0.0000       1.981996        53.9328 
 318   0.0000       1.994129        54.2630 
 319   0.0000       1.996839        54.3368 
 320   0.0000       2.021780        55.0154 
 321   0.0000       2.026723        55.1499 
 322   0.0000       2.051038        55.8116 
 323   0.0000       2.054406        55.9032 
 324   0.0000       2.063259        56.1441 
 325   0.0000       2.072811        56.4040 
 326   0.0000       2.091217        56.9049 
 327   0.0000       2.098766        57.1103 
 328   0.0000       2.109845        57.4118 
 329   0.0000       2.117806        57.6284 
 330   0.0000       2.121202        57.7208 
 331   0.0000       2.140824        58.2548 
 332   0.0000       2.169372        59.0316 
 333   0.0000       2.170530        59.0631 
 334   0.0000       2.180040        59.3219 
 335   0.0000       2.182988        59.4021 
 336   0.0000       2.189461        59.5783 
 337   0.0000       2.201314        59.9008 
 338   0.0000       2.216649        60.3181 
 339   0.0000       2.227987        60.6266 
 340   0.0000       2.242989        61.0348 
 341   0.0000       2.253720        61.3268 
 342   0.0000       2.260568        61.5132 
 343   0.0000       2.263807        61.6013 
 344   0.0000       2.267999        61.7154 
 345   0.0000       2.274577        61.8944 
 346   0.0000       2.284354        62.1604 
 347   0.0000       2.296299        62.4855 
 348   0.0000       2.311813        62.9076 
 349   0.0000       2.314934        62.9926 
 350   0.0000       2.315734        63.0143 
 351   0.0000       2.327394        63.3316 
 352   0.0000       2.333248        63.4909 
 353   0.0000       2.347707        63.8844 
 354   0.0000       2.355796        64.1045 
 355   0.0000       2.370883        64.5150 
 356   0.0000       2.395587        65.1872 
 357   0.0000       2.401851        65.3577 
 358   0.0000       2.410591        65.5955 
 359   0.0000       2.430952        66.1496 
 360   0.0000       2.453048        66.7508 
 361   0.0000       2.467638        67.1478 
 362   0.0000       2.507311        68.2274 
 363   0.0000       2.512650        68.3727 
 364   0.0000       2.525530        68.7232 
 365   0.0000       2.539633        69.1069 
 366   0.0000       2.548563        69.3499 
 367   0.0000       2.590450        70.4897 
 368   0.0000       2.599624        70.7394 
 369   0.0000       2.602613        70.8207 
 370   0.0000       2.607338        70.9493 
 371   0.0000       2.614235        71.1370 
 372   0.0000       2.617333        71.2212 
 373   0.0000       2.638219        71.7896 
 374   0.0000       2.668266        72.6072 
 375   0.0000       2.669075        72.6292 
 376   0.0000       2.677321        72.8536 
 377   0.0000       2.684278        73.0429 
 378   0.0000       2.695781        73.3559 
 379   0.0000       2.697356        73.3988 
 380   0.0000       2.706574        73.6496 
 381   0.0000       2.716864        73.9296 
 382   0.0000       2.722438        74.0813 
 383   0.0000       2.726020        74.1788 
 384   0.0000       2.734810        74.4180 
 385   0.0000       2.754747        74.9605 
 386   0.0000       2.763391        75.1957 
 387   0.0000       2.781748        75.6952 
 388   0.0000       2.791671        75.9652 
 389   0.0000       2.797890        76.1345 
 390   0.0000       2.809221        76.4428 
 391   0.0000       2.840777        77.3015 
 392   0.0000       2.855332        77.6975 
 393   0.0000       2.857507        77.7567 
 394   0.0000       2.860131        77.8281 
 395   0.0000       2.872096        78.1537 
 396   0.0000       2.905513        79.0630 
 397   0.0000       2.914133        79.2976 
 398   0.0000       2.926403        79.6315 
 399   0.0000       2.944777        80.1315 
 400   0.0000       2.988869        81.3313 
 401   0.0000       3.011921        81.9585 
 402   0.0000       3.040237        82.7291 
 403   0.0000       3.050677        83.0131 
 404   0.0000       3.067895        83.4817 
 405   0.0000       3.085496        83.9606 
 406   0.0000       3.112248        84.6886 
 407   0.0000       3.133726        85.2730 
 408   0.0000       3.149769        85.7096 
 409   0.0000       3.162848        86.0655 
 410   0.0000       3.176663        86.4414 
 411   0.0000       3.236328        88.0650 
[...]
----------------------------------------------------------------------------
  6:     18.32   0.000030    0.15  0.000518  (-0.002101  0.022234  0.004435)
  7:     25.67   0.000042    0.21  0.000506  (-0.004796  0.021844 -0.002316)
  8:     38.10   0.000850    4.30  0.006965  (-0.006564 -0.041039 -0.072372)
  9:     56.44   0.000145    0.73  0.000801  (-0.003392  0.021373  0.018253)
 10:     64.09   0.000230    1.16  0.001119  ( 0.016344  0.029136  0.001782)
 11:     89.55   0.000206    1.04  0.000717  (-0.017597 -0.020025 -0.002600)
 12:     99.68   0.000191    0.97  0.000598  (-0.003013  0.014573 -0.019410)
 13:    115.01   0.000166    0.84  0.000450  (-0.009173  0.017548 -0.007587)
 14:    123.32   0.000529    2.67  0.001339  (-0.005463  0.014459  0.033175)
 15:    145.95   0.000144    0.73  0.000309  ( 0.001512 -0.002568  0.017317)
 16:    175.93   0.000258    1.30  0.000457  ( 0.003873 -0.020505 -0.004694)
 17:    198.78   0.000117    0.59  0.000184  (-0.001328 -0.010019 -0.009042)
 18:    219.54   0.000592    2.99  0.000842  ( 0.000504  0.021524 -0.019459)
 19:    223.69   0.001142    5.77  0.001594  (-0.001215  0.010760  0.038423)
 20:    244.47   0.000219    1.11  0.000279  ( 0.007857  0.013911  0.004920)
 21:    265.14   0.000080    0.41  0.000095  (-0.006212  0.007421  0.000976)
 22:    268.74   0.000049    0.25  0.000057  (-0.006303  0.001554 -0.003790)
 23:    298.67   0.000582    2.94  0.000608  (-0.021484  0.011768 -0.002837)
 24:    324.79   0.001210    6.11  0.001162  ( 0.019453 -0.027588 -0.004753)
 25:    381.98   0.000255    1.29  0.000208  ( 0.011907 -0.007670 -0.002777)
 26:    410.75   0.002106   10.64  0.001600  (-0.027477  0.028424 -0.006079)
 27:    421.77   0.002114   10.68  0.001564  ( 0.023645 -0.031566  0.002901)
 28:    454.21   0.000490    2.48  0.000337  (-0.010936  0.014130  0.004204)
 29:    488.44   0.000654    3.31  0.000418  (-0.011326  0.016870 -0.002268)
 30:    499.84   0.000401    2.03  0.000251  (-0.006607  0.014349 -0.000996)
 31:    524.55   0.001196    6.05  0.000712  (-0.004644  0.026196 -0.001960)
 32:    527.68   0.000276    1.39  0.000163  ( 0.002192 -0.012581 -0.000050)
 33:    545.81   0.000514    2.60  0.000294  ( 0.014922 -0.008039  0.002532)
 34:    561.38   0.000973    4.92  0.000541  ( 0.005443 -0.005827 -0.021847)
 35:    569.58   0.000586    2.96  0.000321  ( 0.004769 -0.007540 -0.015530)
 36:    579.42   0.000915    4.63  0.000493  ( 0.006132 -0.021242  0.002042)
 37:    598.65   0.001626    8.21  0.000847  ( 0.016137 -0.024041 -0.003003)
 38:    629.78   0.000380    1.92  0.000188  (-0.008167  0.010944  0.001258)
 39:    666.20   0.000490    2.48  0.000229  ( 0.008548 -0.012255  0.002483)
 40:    701.40   0.000095    0.48  0.000042  ( 0.006158 -0.002079  0.000234)
 41:    719.23   0.001160    5.86  0.000503  (-0.003853  0.003758  0.021775)
 42:    732.74   0.000665    3.36  0.000283  ( 0.014655 -0.004938  0.006636)
 43:    741.57   0.000072    0.36  0.000030  (-0.003953 -0.001920  0.003289)
 44:    762.61   0.002855   14.43  0.001168  ( 0.004179 -0.001358 -0.033897)
 45:    775.46   0.002241   11.32  0.000902  ( 0.022556 -0.019490  0.003619)
 46:    796.19   0.003302   16.69  0.001294  ( 0.032180 -0.016078 -0.000533)
 47:    819.73   0.001071    5.41  0.000408  (-0.002237  0.019135  0.006043)
 48:    820.23   0.002879   14.55  0.001095  (-0.003491  0.032644 -0.004183)
 49:    839.09   0.002584   13.06  0.000961  (-0.001364  0.005004 -0.030561)
 50:    853.14   0.002422   12.24  0.000886  ( 0.000691  0.003929  0.029498)
 51:    861.88   0.000334    1.69  0.000121  ( 0.007316 -0.003528  0.007422)
 52:    875.13   0.002933   14.82  0.001046  (-0.003340  0.002843 -0.032042)
 53:    885.85   0.000892    4.51  0.000314  (-0.007874  0.006186 -0.014629)
 54:    888.90   0.008432   42.61  0.002960  ( 0.007230 -0.006316 -0.053555)
 55:    942.51   0.000331    1.68  0.000110  (-0.002087  0.002930 -0.009839)
 56:    947.72   0.009991   50.49  0.003290  (-0.024883  0.018861 -0.048115)
 57:    989.30   0.022845  115.45  0.007206  (-0.043891  0.072567 -0.003716)
 58:    994.45   0.003511   17.74  0.001102  ( 0.013269 -0.029031 -0.009108)
 59:    995.74   0.001963    9.92  0.000615  (-0.008307  0.019004 -0.013608)
 60:    999.36   0.001259    6.36  0.000393  (-0.011927  0.015729 -0.001887)
 61:   1011.06   0.017617   89.03  0.005437  (-0.039122  0.062368 -0.004116)
 62:   1012.13   0.001824    9.22  0.000562  ( 0.000866 -0.002695  0.023546)
 63:   1016.25   0.000489    2.47  0.000150  ( 0.002383 -0.000907  0.011987)
 64:   1019.13   0.000291    1.47  0.000089  (-0.002555  0.002159  0.008835)
 65:   1045.60   0.005536   27.98  0.001652  (-0.016974 -0.030537  0.020779)
 66:   1119.50   0.004667   23.58  0.001301  (-0.006444  0.034602 -0.007875)
 67:   1131.73   0.000092    0.47  0.000025  ( 0.001679 -0.004730  0.000496)
 68:   1169.44   0.003435   17.36  0.000917  ( 0.010294 -0.028437  0.001446)
 69:   1171.00   0.040562  204.98  0.010809  ( 0.043145 -0.091730  0.023101)
 70:   1181.31   0.002954   14.93  0.000780  (-0.011670  0.024394 -0.007006)
 71:   1188.27   0.001754    8.86  0.000461  ( 0.014840 -0.014981  0.003982)
 72:   1200.82   0.001993   10.07  0.000518  ( 0.002411 -0.022625 -0.000343)
 73:   1209.25   0.006123   30.94  0.001580  (-0.037109  0.013355 -0.004979)
 74:   1233.55   0.000573    2.90  0.000145  (-0.005379 -0.010184  0.003522)
 75:   1250.00   0.122511  619.12  0.030585  (-0.086659  0.150026 -0.023817)
 76:   1263.61   0.045310  228.98  0.011190  ( 0.050253 -0.092751  0.007849)
 77:   1270.11   0.008891   44.93  0.002185  (-0.020572  0.040886 -0.009472)
 78:   1279.95   0.017600   88.94  0.004291  (-0.035960  0.054751 -0.000496)
 79:   1294.30   0.094811  479.14  0.022859  (-0.081854  0.124339 -0.026445)
 80:   1308.24   0.022181  112.10  0.005291  (-0.037505  0.061055 -0.012523)
 81:   1322.14   0.000715    3.61  0.000169  ( 0.009431 -0.008880 -0.000966)
 82:   1337.50   0.001940    9.80  0.000453  ( 0.002460 -0.020838  0.003514)
 83:   1366.27   0.001602    8.10  0.000366  (-0.010214 -0.014783  0.006566)
 84:   1372.20   0.003392   17.14  0.000771  ( 0.020210 -0.019048 -0.000417)
 85:   1398.79   0.132137  667.76  0.029479  (-0.112090  0.129924 -0.005875)
 86:   1405.91   0.040590  205.12  0.009010  ( 0.065416 -0.068357  0.007589)
 87:   1409.32   0.043745  221.07  0.009686  (-0.060445  0.077022 -0.010025)
 88:   1425.72   0.004316   21.81  0.000945  ( 0.006051 -0.029953  0.003300)
 89:   1442.16   0.000010    0.05  0.000002  ( 0.001456 -0.000305  0.000103)
 90:   1465.10   0.001477    7.46  0.000315  (-0.005029  0.013116  0.010825)
 91:   1466.85   0.000845    4.27  0.000180  (-0.007917 -0.009324 -0.005494)
 92:   1470.31   0.000754    3.81  0.000160  ( 0.007059 -0.010048 -0.003026)
 93:   1474.81   0.018794   94.98  0.003977  (-0.037988  0.049290 -0.010206)
 94:   1504.75   0.000434    2.19  0.000090  ( 0.005690  0.007580  0.000466)
 95:   1536.00   0.000477    2.41  0.000097  (-0.009582 -0.002205 -0.000385)
 96:   1547.02   0.002526   12.77  0.000510  (-0.002842  0.022394  0.000199)
 97:   1573.46   0.004682   23.66  0.000929  (-0.020524  0.022268 -0.003402)
 98:   1621.02   0.002560   12.94  0.000493  (-0.004285  0.021675 -0.002144)
 99:   1629.55   0.051915  262.36  0.009942  ( 0.088789 -0.044938  0.006245)
100:   1644.53   0.024283  122.72  0.004608  (-0.008977  0.066920 -0.007003)
101:   1659.22   0.005534   27.96  0.001041  (-0.017527 -0.027077 -0.000630)
102:   1669.21   0.040327  203.80  0.007539  ( 0.018373 -0.084589  0.006809)
103:   1694.97   0.042518  214.87  0.007828  ( 0.011647 -0.087597  0.004389)
104:   1716.64   0.098518  497.87  0.017909  ( 0.063238 -0.115773  0.022513)
105:   2997.21   0.033347  168.52  0.003472  ( 0.013569 -0.054117  0.018955)
106:   3070.52   0.007098   35.87  0.000721  ( 0.009779  0.009373  0.023192)
107:   3134.89   0.001916    9.68  0.000191  ( 0.013248 -0.002050 -0.003326)
108:   3146.96   0.003614   18.26  0.000358  ( 0.016567 -0.008700 -0.002859)
109:   3171.82   0.000298    1.51  0.000029  (-0.004586  0.002854 -0.000374)
110:   3175.41   0.001728    8.73  0.000170  ( 0.013005 -0.000372  0.000725)
111:   3175.47   0.000995    5.03  0.000098  (-0.009861  0.000206 -0.000739)
112:   3178.81   0.002177   11.00  0.000214  ( 0.014511 -0.001634  0.000721)
113:   3187.36   0.001577    7.97  0.000154  ( 0.007334 -0.010018  0.000493)
114:   3192.57   0.003920   19.81  0.000383  (-0.004849 -0.018964 -0.000232)
115:   3199.20   0.002160   10.91  0.000211  ( 0.005237  0.013534 -0.000272)
116:   3206.06   0.000905    4.57  0.000088  (-0.008907 -0.002956 -0.000157)
117:   3216.67   0.002077   10.50  0.000201  ( 0.013805 -0.003243  0.000636)
118:   3224.19   0.000435    2.20  0.000042  ( 0.005811 -0.002848  0.000455)
119:   3253.94   0.003152   15.93  0.000302  ( 0.008617 -0.015062  0.001102)

* The epsilon (eps) is given for a Dirac delta lineshape.
** The dipole moment derivative (T) already includes vibrational overlap.

The first frequency considered to be a vibration is 6
The total number of vibrations considered is 114


--------------------------
THERMOCHEMISTRY AT 298.15K
--------------------------

Temperature         ... 298.15 K
Pressure            ... 1.00 atm
Total Mass          ... 329.35 AMU

Throughout the following assumptions are being made:
  (1) The electronic state is orbitally nondegenerate
  (2) There are no thermally accessible electronically excited states
  (3) Hindered rotations indicated by low frequency modes are not
      treated as such but are treated as vibrations and this may
      cause some error
  (4) All equations used are the standard statistical mechanics
      equations for an ideal gas
  (5) All vibrations are strictly harmonic

freq.      18.32  E(vib)   ...       0.57 
freq.      25.67  E(vib)   ...       0.56 
freq.      38.10  E(vib)   ...       0.54 
freq.      56.44  E(vib)   ...       0.52 
freq.      64.09  E(vib)   ...       0.51 
freq.      89.55  E(vib)   ...       0.47 
freq.      99.68  E(vib)   ...       0.46 
freq.     115.01  E(vib)   ...       0.44 
freq.     123.32  E(vib)   ...       0.43 
freq.     145.95  E(vib)   ...       0.41 
freq.     175.93  E(vib)   ...       0.38 
freq.     198.78  E(vib)   ...       0.35 
freq.     219.54  E(vib)   ...       0.33 
freq.     223.69  E(vib)   ...       0.33 
freq.     244.47  E(vib)   ...       0.31 
freq.     265.14  E(vib)   ...       0.29 
freq.     268.74  E(vib)   ...       0.29 
freq.     298.67  E(vib)   ...       0.26 
freq.     324.79  E(vib)   ...       0.24 
freq.     381.98  E(vib)   ...       0.21 
freq.     410.75  E(vib)   ...       0.19 
freq.     421.77  E(vib)   ...       0.18 
freq.     454.21  E(vib)   ...       0.16 
freq.     488.44  E(vib)   ...       0.15 
freq.     499.84  E(vib)   ...       0.14 
freq.     524.55  E(vib)   ...       0.13 
freq.     527.68  E(vib)   ...       0.13 
freq.     545.81  E(vib)   ...       0.12 
freq.     561.38  E(vib)   ...       0.11 
freq.     569.58  E(vib)   ...       0.11 
freq.     579.42  E(vib)   ...       0.11 
freq.     598.65  E(vib)   ...       0.10 
freq.     629.78  E(vib)   ...       0.09 
freq.     666.20  E(vib)   ...       0.08 
freq.     701.40  E(vib)   ...       0.07 
freq.     719.23  E(vib)   ...       0.07 
freq.     732.74  E(vib)   ...       0.06 
freq.     741.57  E(vib)   ...       0.06 
freq.     762.61  E(vib)   ...       0.06 
freq.     775.46  E(vib)   ...       0.05 
freq.     796.19  E(vib)   ...       0.05 
freq.     819.73  E(vib)   ...       0.05 
freq.     820.23  E(vib)   ...       0.05 
freq.     839.09  E(vib)   ...       0.04 
freq.     853.14  E(vib)   ...       0.04 
freq.     861.88  E(vib)   ...       0.04 
freq.     875.13  E(vib)   ...       0.04 
freq.     885.85  E(vib)   ...       0.04 
freq.     888.90  E(vib)   ...       0.04 
freq.     942.51  E(vib)   ...       0.03 
freq.     947.72  E(vib)   ...       0.03 
freq.     989.30  E(vib)   ...       0.02 
freq.     994.45  E(vib)   ...       0.02 
freq.     995.74  E(vib)   ...       0.02 
freq.     999.36  E(vib)   ...       0.02 
freq.    1011.06  E(vib)   ...       0.02 
freq.    1012.13  E(vib)   ...       0.02 
freq.    1016.25  E(vib)   ...       0.02 
freq.    1019.13  E(vib)   ...       0.02 
freq.    1045.60  E(vib)   ...       0.02 
freq.    1119.50  E(vib)   ...       0.01 
freq.    1131.73  E(vib)   ...       0.01 
freq.    1169.44  E(vib)   ...       0.01 
freq.    1171.00  E(vib)   ...       0.01 
freq.    1181.31  E(vib)   ...       0.01 
freq.    1188.27  E(vib)   ...       0.01 
freq.    1200.82  E(vib)   ...       0.01 
freq.    1209.25  E(vib)   ...       0.01 
freq.    1233.55  E(vib)   ...       0.01 
freq.    1250.00  E(vib)   ...       0.01 
freq.    1263.61  E(vib)   ...       0.01 
freq.    1270.11  E(vib)   ...       0.01 
freq.    1279.95  E(vib)   ...       0.01 
freq.    1294.30  E(vib)   ...       0.01 
freq.    1308.24  E(vib)   ...       0.01 
freq.    1322.14  E(vib)   ...       0.01 
freq.    1337.50  E(vib)   ...       0.01 
freq.    1366.27  E(vib)   ...       0.01 
freq.    1372.20  E(vib)   ...       0.01 
freq.    1398.79  E(vib)   ...       0.00 
freq.    1405.91  E(vib)   ...       0.00 
freq.    1409.32  E(vib)   ...       0.00 
freq.    1425.72  E(vib)   ...       0.00 
freq.    1442.16  E(vib)   ...       0.00 
freq.    1465.10  E(vib)   ...       0.00 
freq.    1466.85  E(vib)   ...       0.00 
freq.    1470.31  E(vib)   ...       0.00 
freq.    1474.81  E(vib)   ...       0.00 
freq.    1504.75  E(vib)   ...       0.00 
freq.    1536.00  E(vib)   ...       0.00 
freq.    1547.02  E(vib)   ...       0.00 
freq.    1573.46  E(vib)   ...       0.00 
freq.    1621.02  E(vib)   ...       0.00 
freq.    1629.55  E(vib)   ...       0.00 
freq.    1644.53  E(vib)   ...       0.00 
freq.    1659.22  E(vib)   ...       0.00 
freq.    1669.21  E(vib)   ...       0.00 
freq.    1694.97  E(vib)   ...       0.00 
freq.    1716.64  E(vib)   ...       0.00 
freq.    2997.21  E(vib)   ...       0.00 
freq.    3070.52  E(vib)   ...       0.00 
freq.    3134.89  E(vib)   ...       0.00 
freq.    3146.96  E(vib)   ...       0.00 
freq.    3171.82  E(vib)   ...       0.00 
freq.    3175.41  E(vib)   ...       0.00 
freq.    3175.47  E(vib)   ...       0.00 
freq.    3178.81  E(vib)   ...       0.00 
freq.    3187.36  E(vib)   ...       0.00 
freq.    3192.57  E(vib)   ...       0.00 
freq.    3199.20  E(vib)   ...       0.00 
freq.    3206.06  E(vib)   ...       0.00 
freq.    3216.67  E(vib)   ...       0.00 
freq.    3224.19  E(vib)   ...       0.00 
freq.    3253.94  E(vib)   ...       0.00 

------------
INNER ENERGY
------------

The inner energy is: U= E(el) + E(ZPE) + E(vib) + E(rot) + E(trans)
    E(el)   - is the total energy from the electronic structure calculation
              = E(kin-el) + E(nuc-el) + E(el-el) + E(nuc-nuc)
    E(ZPE)  - the the zero temperature vibrational energy from the frequency calculation
    E(vib)  - the the finite temperature correction to E(ZPE) due to population
              of excited vibrational states
    E(rot)  - is the rotational thermal energy
    E(trans)- is the translational thermal energy

Summary of contributions to the inner energy U:
Electronic energy                ...  -1088.17167978 Eh
Zero point energy                ...      0.30950722 Eh     194.22 kcal/mol
Thermal vibrational correction   ...      0.01742677 Eh      10.94 kcal/mol
Thermal rotational correction    ...      0.00141627 Eh       0.89 kcal/mol
Thermal translational correction ...      0.00141627 Eh       0.89 kcal/mol
-----------------------------------------------------------------------
Total thermal energy                  -1087.84191324 Eh


Summary of corrections to the electronic energy:
(perhaps to be used in another calculation)
Total thermal correction                  0.02025931 Eh      12.71 kcal/mol
Non-thermal (ZPE) correction              0.30950722 Eh     194.22 kcal/mol
-----------------------------------------------------------------------
Total correction                          0.32976653 Eh     206.93 kcal/mol


--------
ENTHALPY
--------

The enthalpy is H = U + kB*T
                kB is Boltzmann's constant
Total free energy                 ...  -1087.84191324 Eh 
Thermal Enthalpy correction       ...      0.00094421 Eh       0.59 kcal/mol
-----------------------------------------------------------------------
Total Enthalpy                    ...  -1087.84096903 Eh


Note: Only C1 symmetry has been detected, increase convergence thresholds 
      if your molecule has a higher symmetry. Symmetry factor of 1.0 is   
      used for the rotational entropy correction. 
 

Note: Rotational entropy computed according to Herzberg 
Infrared and Raman Spectra, Chapter V,1, Van Nostrand Reinhold, 1945 
Point Group:  C1, Symmetry Number:   1  
Rotational constants in cm-1:     0.024487     0.002761     0.002491 

Vibrational entropy computed according to the QRRHO of S. Grimme
Chem.Eur.J. 2012 18 9955


-------
ENTROPY
-------

The entropy contributions are T*S = T*(S(el)+S(vib)+S(rot)+S(trans))
     S(el)   - electronic entropy
     S(vib)  - vibrational entropy
     S(rot)  - rotational entropy
     S(trans)- translational entropy
The entropies will be listed as multiplied by the temperature to get
units of energy

Electronic entropy                ...      0.00000000 Eh      0.00 kcal/mol
Vibrational entropy               ...      0.03101508 Eh     19.46 kcal/mol
Rotational entropy                ...      0.01687395 Eh     10.59 kcal/mol
Translational entropy             ...      0.02055939 Eh     12.90 kcal/mol
-----------------------------------------------------------------------
Final entropy term                ...      0.06844843 Eh     42.95 kcal/mol

In case the symmetry of your molecule has not been determined correctly
or in case you have a reason to use a different symmetry number we print 
out the resulting rotational entropy values for sn=1,12 :
 --------------------------------------------------------
|  sn= 1 | S(rot)=       0.01687395 Eh     10.59 kcal/mol|
|  sn= 2 | S(rot)=       0.01621950 Eh     10.18 kcal/mol|
|  sn= 3 | S(rot)=       0.01583666 Eh      9.94 kcal/mol|
|  sn= 4 | S(rot)=       0.01556504 Eh      9.77 kcal/mol|
|  sn= 5 | S(rot)=       0.01535435 Eh      9.63 kcal/mol|
|  sn= 6 | S(rot)=       0.01518221 Eh      9.53 kcal/mol|
|  sn= 7 | S(rot)=       0.01503666 Eh      9.44 kcal/mol|
|  sn= 8 | S(rot)=       0.01491058 Eh      9.36 kcal/mol|
|  sn= 9 | S(rot)=       0.01479938 Eh      9.29 kcal/mol|
|  sn=10 | S(rot)=       0.01469990 Eh      9.22 kcal/mol|
|  sn=11 | S(rot)=       0.01460991 Eh      9.17 kcal/mol|
|  sn=12 | S(rot)=       0.01452775 Eh      9.12 kcal/mol|
 --------------------------------------------------------


-------------------
GIBBS FREE ENERGY
-------------------

The Gibbs free energy is G = H - T*S

Total enthalpy                    ...  -1087.84096903 Eh 
Total entropy correction          ...     -0.06844843 Eh    -42.95 kcal/mol
-----------------------------------------------------------------------
Final Gibbs free energy         ...  -1087.90941746 Eh

For completeness - the Gibbs free energy minus the electronic energy
G-E(el)                           ...      0.26226232 Eh    164.57 kcal/mol


Timings for individual modules:

Sum of individual times         ...     3236.589 sec (=  53.943 min)
GTO integral calculation        ...      168.347 sec (=   2.806 min)   5.2 %
SCF iterations                  ...     1860.717 sec (=  31.012 min)  57.5 %
SCF Gradient evaluation         ...      477.483 sec (=   7.958 min)  14.8 %
Geometry relaxation             ...       16.335 sec (=   0.272 min)   0.5 %
Analytical frequency calculation...      713.707 sec (=  11.895 min)  22.1 %
                             ****ORCA TERMINATED NORMALLY****
TOTAL RUN TIME: 0 days 0 hours 54 minutes 42 seconds 591 msec
